
     Program PWSCF v.6.4.1 starts on 13Aug2020 at 21: 5:10 

     This program is part of the open-source Quantum ESPRESSO suite
     for quantum simulation of materials; please cite
         "P. Giannozzi et al., J. Phys.:Condens. Matter 21 395502 (2009);
         "P. Giannozzi et al., J. Phys.:Condens. Matter 29 465901 (2017);
          URL http://www.quantum-espresso.org", 
     in publications or presentations arising from this work. More details at
     http://www.quantum-espresso.org/quote

     Parallel version (MPI), running on   128 processors

     MPI processes distributed on     2 nodes
     R & G space division:  proc/nbgrp/npool/nimage =     128
     Reading input from input.in
Warning: card &CELL ignored
Warning: card    CELL_DYNAMICS    = 'BFGS' ignored
Warning: card / ignored

     Current dimensions of program PWSCF are:
     Max number of different atomic species (ntypx) = 10
     Max number of k-points (npk) =  40000
     Max angular momentum in pseudopotentials (lmaxx) =  3

     IMPORTANT: XC functional enforced from input :
     Exchange-correlation      = SCAN ( 0  0  0  0 0 5)
     Using LIBXC version       =    4   3   4
     Any further DFT definition will be discarded
     Please, verify this is what you really want


     Subspace diagonalization in iterative solution of the eigenvalue problem:
     a serial algorithm will be used

     Message from routine setup:
     DEPRECATED: symmetry with ibrav=0, use correct ibrav instead
 
     Parallelization info
     --------------------
     sticks:   dense  smooth     PW     G-vecs:    dense   smooth      PW
     Min           5       5      1                 1281     1281     165
     Max           6       6      2                 1376     1376     244
     Sum         745     745    211               170673   170673   26579
 


     bravais-lattice index     =            0
     lattice parameter (alat)  =       5.7888  a.u.
     unit-cell volume          =    1761.3593 (a.u.)^3
     number of atoms/cell      =           13
     number of atomic types    =            3
     number of electrons       =       163.00
     number of Kohn-Sham states=           98
     kinetic-energy cutoff     =      80.0000  Ry
     charge density cutoff     =     320.0000  Ry
     convergence threshold     =      1.0E-06
     mixing beta               =       0.3000
     number of iterations used =            8  plain     mixing
     Exchange-correlation      = SCAN ( 0  0  0  0 0 5)
     Using LIBXC version       =    4   3   4
     nstep                     =          400


     celldm(1)=   5.788779  celldm(2)=   0.000000  celldm(3)=   0.000000
     celldm(4)=   0.000000  celldm(5)=   0.000000  celldm(6)=   0.000000

     crystal axes: (cart. coord. in units of alat)
               a(1) = (   1.000000   0.000000   0.000000 )  
               a(2) = (  -0.500000   0.866025   0.000000 )  
               a(3) = (   0.000000   0.000000  10.484708 )  

     reciprocal axes: (cart. coord. in units 2 pi/alat)
               b(1) = (  1.000000  0.577350  0.000000 )  
               b(2) = (  0.000000  1.154701  0.000000 )  
               b(3) = (  0.000000  0.000000  0.095377 )  


     PseudoPot. # 1 for Rh read from file:
     /home01/x1837a02/program/pp_oncv/Rh_ONCV_PBE-1.2.upf
     MD5 check sum: bad865ff0eae7a34a2bc08b65ba9af62
     Pseudo is Norm-conserving, Zval = 17.0
     Generated using ONCVPSP code by D. R. Hamann
     Using radial grid of  602 points,  6 beta functions with: 
                l(1) =   0
                l(2) =   0
                l(3) =   1
                l(4) =   1
                l(5) =   2
                l(6) =   2

     PseudoPot. # 2 for Cu read from file:
     /home01/x1837a02/program/pp_oncv/Cu_ONCV_PBE-1.2.upf
     MD5 check sum: 80213f8971cc881d9b4c24e0a73cd931
     Pseudo is Norm-conserving, Zval = 19.0
     Generated using ONCVPSP code by D. R. Hamann
     Using radial grid of  602 points,  6 beta functions with: 
                l(1) =   0
                l(2) =   0
                l(3) =   1
                l(4) =   1
                l(5) =   2
                l(6) =   2

     PseudoPot. # 3 for O  read from file:
     /home01/x1837a02/program/pp_oncv/O_ONCV_PBE-1.2.upf
     MD5 check sum: e36c48deb68f4e355fffe4602be2c42c
     Pseudo is Norm-conserving, Zval =  6.0
     Generated using ONCVPSP code by D. R. Hamann
     Using radial grid of  602 points,  4 beta functions with: 
                l(1) =   0
                l(2) =   0
                l(3) =   1
                l(4) =   1

     atomic species   valence    mass     pseudopotential
        Rh            17.00   102.90550     Rh( 1.00)
        Cu            19.00    63.54600     Cu( 1.00)
        O              6.00    15.99900     O ( 1.00)

      4 Sym. Ops., with inversion, found


                                    s                        frac. trans.

      isym =  1     identity                                     

 cryst.   s( 1) = (     1          0          0      )
                  (     0          1          0      )
                  (     0          0          1      )

 cart.    s( 1) = (  1.0000000  0.0000000  0.0000000 )
                  (  0.0000000  1.0000000  0.0000000 )
                  (  0.0000000  0.0000000  1.0000000 )


      isym =  2     180 deg rotation - cryst. axis [1,1,0]       

 cryst.   s( 2) = (     0          1          0      )
                  (     1          0          0      )
                  (     0          0         -1      )

 cart.    s( 2) = ( -0.5000000  0.8660254  0.0000000 )
                  (  0.8660254  0.5000000  0.0000000 )
                  (  0.0000000  0.0000000 -1.0000000 )


      isym =  3     inversion                                    

 cryst.   s( 3) = (    -1          0          0      )
                  (     0         -1          0      )
                  (     0          0         -1      )

 cart.    s( 3) = ( -1.0000000  0.0000000  0.0000000 )
                  (  0.0000000 -1.0000000  0.0000000 )
                  (  0.0000000  0.0000000 -1.0000000 )


      isym =  4     inv. 180 deg rotation - cryst. axis [1,1,0]  

 cryst.   s( 4) = (     0         -1          0      )
                  (    -1          0          0      )
                  (     0          0          1      )

 cart.    s( 4) = (  0.5000000 -0.8660254  0.0000000 )
                  ( -0.8660254 -0.5000000  0.0000000 )
                  (  0.0000000  0.0000000  1.0000000 )


   Cartesian axes

     site n.     atom                  positions (alat units)
         1           Rh  tau(   1) = (   0.0000000   0.0000000   5.2423536  )
         2           Rh  tau(   2) = (   0.5000050   0.2886723   7.1020994  )
         3           Rh  tau(   3) = (  -0.0000050   0.5773532   3.3826074  )
         4           Cu  tau(   4) = (   0.0000000   0.0000000   2.4483479  )
         5           Cu  tau(   5) = (   0.0000000   0.0000000   8.0363599  )
         6           Cu  tau(   6) = (   0.5000050   0.2886723   4.3201083  )
         7           Cu  tau(   7) = (  -0.0000050   0.5773532   6.1645995  )
         8           O   tau(   8) = (   0.0000000   0.0000000   3.0464327  )
         9           O   tau(   9) = (   0.0000000   0.0000000   7.4382751  )
        10           O   tau(  10) = (   0.5000050   0.2886723   4.9115432  )
        11           O   tau(  11) = (   0.5000050   0.2886723   3.7181675  )
        12           O   tau(  12) = (  -0.0000050   0.5773532   6.7665392  )
        13           O   tau(  13) = (  -0.0000050   0.5773532   5.5731635  )

   Crystallographic axes

     site n.     atom                  positions (cryst. coord.)
         1           Rh  tau(   1) = (  0.0000000  0.0000000  0.5000000  )
         2           Rh  tau(   2) = (  0.6666700  0.3333300  0.6773770  )
         3           Rh  tau(   3) = (  0.3333300  0.6666700  0.3226230  )
         4           Cu  tau(   4) = (  0.0000000  0.0000000  0.2335161  )
         5           Cu  tau(   5) = (  0.0000000  0.0000000  0.7664839  )
         6           Cu  tau(   6) = (  0.6666700  0.3333300  0.4120390  )
         7           Cu  tau(   7) = (  0.3333300  0.6666700  0.5879610  )
         8           O   tau(   8) = (  0.0000000  0.0000000  0.2905596  )
         9           O   tau(   9) = (  0.0000000  0.0000000  0.7094404  )
        10           O   tau(  10) = (  0.6666700  0.3333300  0.4684483  )
        11           O   tau(  11) = (  0.6666700  0.3333300  0.3546277  )
        12           O   tau(  12) = (  0.3333300  0.6666700  0.6453722  )
        13           O   tau(  13) = (  0.3333300  0.6666700  0.5315516  )

     number of k points=    21  gaussian smearing, width (Ry)=  0.0100
                       cart. coord. in units 2pi/alat
        k(    1) = (   0.0000000   0.0000000   0.0000000), wk =   0.0312500
        k(    2) = (   0.0000000   0.1443376   0.0000000), wk =   0.1250000
        k(    3) = (   0.0000000   0.2886751   0.0000000), wk =   0.1250000
        k(    4) = (   0.0000000   0.4330127   0.0000000), wk =   0.1250000
        k(    5) = (   0.0000000  -0.5773503   0.0000000), wk =   0.0625000
        k(    6) = (   0.1250000   0.2165064   0.0000000), wk =   0.0625000
        k(    7) = (   0.1250000   0.3608439   0.0000000), wk =   0.1250000
        k(    8) = (   0.1250000   0.5051815   0.0000000), wk =   0.1250000
        k(    9) = (   0.2500000   0.4330127   0.0000000), wk =   0.0625000
        k(   10) = (   0.2500000   0.5773503   0.0000000), wk =   0.1250000
        k(   11) = (  -0.1250000   0.0721688   0.0000000), wk =   0.0625000
        k(   12) = (  -0.2500000   0.1443376   0.0000000), wk =   0.0625000
        k(   13) = (  -0.3750000   0.2165064   0.0000000), wk =   0.0625000
        k(   14) = (   0.5000000  -0.2886751   0.0000000), wk =   0.0312500
        k(   15) = (  -0.1250000   0.2165064   0.0000000), wk =   0.1250000
        k(   16) = (  -0.2500000   0.2886751   0.0000000), wk =   0.1250000
        k(   17) = (   0.3750000   0.0721688   0.0000000), wk =   0.1250000
        k(   18) = (  -0.3750000   0.3608439   0.0000000), wk =   0.1250000
        k(   19) = (   0.5000000   0.1443376   0.0000000), wk =   0.1250000
        k(   20) = (  -0.2500000   0.4330127   0.0000000), wk =   0.1250000
        k(   21) = (  -0.3750000   0.5051815   0.0000000), wk =   0.0625000

                       cryst. coord.
        k(    1) = (   0.0000000   0.0000000   0.0000000), wk =   0.0312500
        k(    2) = (   0.0000000   0.1250000   0.0000000), wk =   0.1250000
        k(    3) = (   0.0000000   0.2500000   0.0000000), wk =   0.1250000
        k(    4) = (   0.0000000   0.3750000   0.0000000), wk =   0.1250000
        k(    5) = (   0.0000000  -0.5000000   0.0000000), wk =   0.0625000
        k(    6) = (   0.1250000   0.1250000   0.0000000), wk =   0.0625000
        k(    7) = (   0.1250000   0.2500000   0.0000000), wk =   0.1250000
        k(    8) = (   0.1250000   0.3750000   0.0000000), wk =   0.1250000
        k(    9) = (   0.2500000   0.2500000   0.0000000), wk =   0.0625000
        k(   10) = (   0.2500000   0.3750000   0.0000000), wk =   0.1250000
        k(   11) = (  -0.1250000   0.1250000   0.0000000), wk =   0.0625000
        k(   12) = (  -0.2500000   0.2500000   0.0000000), wk =   0.0625000
        k(   13) = (  -0.3750000   0.3750000   0.0000000), wk =   0.0625000
        k(   14) = (   0.5000000  -0.5000000   0.0000000), wk =   0.0312500
        k(   15) = (  -0.1250000   0.2500000   0.0000000), wk =   0.1250000
        k(   16) = (  -0.2500000   0.3750000   0.0000000), wk =   0.1250000
        k(   17) = (   0.3750000  -0.1250000   0.0000000), wk =   0.1250000
        k(   18) = (  -0.3750000   0.5000000   0.0000000), wk =   0.1250000
        k(   19) = (   0.5000000  -0.1250000   0.0000000), wk =   0.1250000
        k(   20) = (  -0.2500000   0.5000000   0.0000000), wk =   0.1250000
        k(   21) = (  -0.3750000   0.6250000   0.0000000), wk =   0.0625000

     Dense  grid:   170673 G-vectors     FFT dimensions: (  36,  36, 360)

     Dynamical RAM for                 wfc:       0.25 MB

     Dynamical RAM for     wfc (w. buffer):       5.46 MB

     Dynamical RAM for           str. fact:       0.06 MB

     Dynamical RAM for           local pot:       0.00 MB

     Dynamical RAM for          nlocal pot:       0.44 MB

     Dynamical RAM for                qrad:       3.97 MB

     Dynamical RAM for          rho,v,vnew:       0.30 MB

     Dynamical RAM for               rhoin:       0.10 MB

     Dynamical RAM for            rho*nmix:       0.63 MB

     Dynamical RAM for           G-vectors:       0.08 MB

     Dynamical RAM for          h,s,v(r/c):       7.03 MB

     Dynamical RAM for          <psi|beta>:       0.26 MB

     Dynamical RAM for                 psi:       0.99 MB

     Dynamical RAM for                hpsi:       0.99 MB

     Dynamical RAM for      wfcinit/wfcrot:       0.72 MB

     Estimated static dynamical RAM per process >      11.29 MB

     Estimated max dynamical RAM per process >      20.57 MB

     Estimated total dynamical RAM >       2.57 GB

     Initial potential from superposition of free atoms

     starting charge  162.73208, renormalised to  163.00000

     negative rho (up,down):  2.062E-04 0.000E+00
     Starting wfcs are random

     total cpu time spent up to now is       12.2 secs

     Self-consistent Calculation

     iteration #  1     ecut=    80.00 Ry     beta= 0.30
     Davidson diagonalization with overlap
     ethr =  1.00E-02,  avg # of iterations = 11.5

     negative rho (up,down):  3.569E-05 0.000E+00

     total cpu time spent up to now is      122.2 secs

     total energy              =   -2302.35522078 Ry
     Harris-Foulkes estimate   =   -2302.70408874 Ry
     estimated scf accuracy    <     894.91725989 Ry

     iteration #  2     ecut=    80.00 Ry     beta= 0.30
     Davidson diagonalization with overlap
     ethr =  1.00E-02,  avg # of iterations =  1.4

     total cpu time spent up to now is      148.2 secs

     total energy              =   -2298.81654705 Ry
     Harris-Foulkes estimate   =   -2302.61948794 Ry
     estimated scf accuracy    <     446.03870372 Ry

     iteration #  3     ecut=    80.00 Ry     beta= 0.30
     Davidson diagonalization with overlap
     ethr =  1.00E-02,  avg # of iterations =  9.3

     total cpu time spent up to now is      214.3 secs

     total energy              =   -2236.46124731 Ry
     Harris-Foulkes estimate   =   -2453.79453347 Ry
     estimated scf accuracy    <    6126.31775080 Ry

     iteration #  4     ecut=    80.00 Ry     beta= 0.30
     Davidson diagonalization with overlap
     ethr =  1.00E-02,  avg # of iterations =  6.5

     total cpu time spent up to now is      273.2 secs

     total energy              =   -2310.72826354 Ry
     Harris-Foulkes estimate   =   -2313.52581466 Ry
     estimated scf accuracy    <    1816.77598702 Ry

     iteration #  5     ecut=    80.00 Ry     beta= 0.30
     Davidson diagonalization with overlap
     ethr =  1.00E-02,  avg # of iterations =  2.2

     total cpu time spent up to now is      301.1 secs

     total energy              =   -2310.50451834 Ry
     Harris-Foulkes estimate   =   -2311.06828091 Ry
     estimated scf accuracy    <    1807.39716352 Ry

     iteration #  6     ecut=    80.00 Ry     beta= 0.30
     Davidson diagonalization with overlap
     ethr =  1.00E-02,  avg # of iterations =  2.0

     negative rho (up,down):  3.874E-02 0.000E+00

     total cpu time spent up to now is      329.1 secs

     total energy              =   -2288.79691353 Ry
     Harris-Foulkes estimate   =   -2310.51473397 Ry
     estimated scf accuracy    <    1781.70331963 Ry

     iteration #  7     ecut=    80.00 Ry     beta= 0.30
     Davidson diagonalization with overlap
     ethr =  1.00E-02,  avg # of iterations =  6.7

     negative rho (up,down):  1.705E-04 0.000E+00

     total cpu time spent up to now is      385.4 secs

     total energy              =   -2297.97008738 Ry
     Harris-Foulkes estimate   =   -2311.04936442 Ry
     estimated scf accuracy    <     333.10402582 Ry

     iteration #  8     ecut=    80.00 Ry     beta= 0.30
     Davidson diagonalization with overlap
     ethr =  1.00E-02,  avg # of iterations =  4.1

     negative rho (up,down):  5.365E-05 0.000E+00

     total cpu time spent up to now is      420.1 secs

     total energy              =   -2303.09233706 Ry
     Harris-Foulkes estimate   =   -2303.23826643 Ry
     estimated scf accuracy    <      25.55939482 Ry

     iteration #  9     ecut=    80.00 Ry     beta= 0.30
     Davidson diagonalization with overlap
     ethr =  1.00E-02,  avg # of iterations =  2.0

     total cpu time spent up to now is      447.8 secs

     total energy              =   -2302.47500268 Ry
     Harris-Foulkes estimate   =   -2303.46580268 Ry
     estimated scf accuracy    <      27.65358620 Ry

     iteration # 10     ecut=    80.00 Ry     beta= 0.30
     Davidson diagonalization with overlap
     ethr =  1.00E-02,  avg # of iterations =  1.3

     total cpu time spent up to now is      473.7 secs

     total energy              =   -2302.88422209 Ry
     Harris-Foulkes estimate   =   -2302.97485536 Ry
     estimated scf accuracy    <       9.91733800 Ry

     iteration # 11     ecut=    80.00 Ry     beta= 0.30
     Davidson diagonalization with overlap
     ethr =  6.08E-03,  avg # of iterations =  1.0

     total cpu time spent up to now is      498.8 secs

     total energy              =   -2302.89753462 Ry
     Harris-Foulkes estimate   =   -2302.99980733 Ry
     estimated scf accuracy    <      11.84641226 Ry

     iteration # 12     ecut=    80.00 Ry     beta= 0.30
     Davidson diagonalization with overlap
     ethr =  6.08E-03,  avg # of iterations =  1.0

     total cpu time spent up to now is      524.4 secs

     total energy              =   -2302.91761145 Ry
     Harris-Foulkes estimate   =   -2302.95050420 Ry
     estimated scf accuracy    <       4.86638685 Ry

     iteration # 13     ecut=    80.00 Ry     beta= 0.30
     Davidson diagonalization with overlap
     ethr =  2.99E-03,  avg # of iterations =  1.0

     total cpu time spent up to now is      550.6 secs

     total energy              =   -2302.88252025 Ry
     Harris-Foulkes estimate   =   -2302.92112183 Ry
     estimated scf accuracy    <       4.07173045 Ry

     iteration # 14     ecut=    80.00 Ry     beta= 0.30
     Davidson diagonalization with overlap
     ethr =  2.50E-03,  avg # of iterations =  1.0

     total cpu time spent up to now is      576.8 secs

     total energy              =   -2302.85695401 Ry
     Harris-Foulkes estimate   =   -2302.89956407 Ry
     estimated scf accuracy    <       3.28038078 Ry

     iteration # 15     ecut=    80.00 Ry     beta= 0.30
     Davidson diagonalization with overlap
     ethr =  2.01E-03,  avg # of iterations =  1.2

     total cpu time spent up to now is      603.3 secs

     total energy              =   -2302.85462270 Ry
     Harris-Foulkes estimate   =   -2302.88626764 Ry
     estimated scf accuracy    <       1.99755042 Ry

     iteration # 16     ecut=    80.00 Ry     beta= 0.30
     Davidson diagonalization with overlap
     ethr =  1.23E-03,  avg # of iterations =  3.3

     total cpu time spent up to now is      634.2 secs

     total energy              =   -2302.96663975 Ry
     Harris-Foulkes estimate   =   -2303.09597634 Ry
     estimated scf accuracy    <      10.49175263 Ry

     iteration # 17     ecut=    80.00 Ry     beta= 0.30
     Davidson diagonalization with overlap
     ethr =  1.23E-03,  avg # of iterations =  1.0

     total cpu time spent up to now is      660.2 secs

     total energy              =   -2303.02003803 Ry
     Harris-Foulkes estimate   =   -2303.00396415 Ry
     estimated scf accuracy    <       2.46813976 Ry

     iteration # 18     ecut=    80.00 Ry     beta= 0.30
     Davidson diagonalization with overlap
     ethr =  1.23E-03,  avg # of iterations =  1.0

     total cpu time spent up to now is      685.5 secs

     total energy              =   -2302.95321972 Ry
     Harris-Foulkes estimate   =   -2303.02425525 Ry
     estimated scf accuracy    <       5.01606279 Ry

     iteration # 19     ecut=    80.00 Ry     beta= 0.30
     Davidson diagonalization with overlap
     ethr =  1.23E-03,  avg # of iterations =  1.0

     total cpu time spent up to now is      711.1 secs

     total energy              =   -2302.98906979 Ry
     Harris-Foulkes estimate   =   -2302.99477806 Ry
     estimated scf accuracy    <       0.95262528 Ry

     iteration # 20     ecut=    80.00 Ry     beta= 0.30
     Davidson diagonalization with overlap
     ethr =  5.84E-04,  avg # of iterations =  1.3

     negative rho (up,down):  2.420E-06 0.000E+00

     total cpu time spent up to now is      736.6 secs

     total energy              =   -2302.96817698 Ry
     Harris-Foulkes estimate   =   -2302.99056878 Ry
     estimated scf accuracy    <       0.99344676 Ry

     iteration # 21     ecut=    80.00 Ry     beta= 0.30
     Davidson diagonalization with overlap
     ethr =  5.84E-04,  avg # of iterations =  1.7

     negative rho (up,down):  6.907E-06 0.000E+00

     total cpu time spent up to now is      763.3 secs

     total energy              =   -2303.01849942 Ry
     Harris-Foulkes estimate   =   -2303.02875408 Ry
     estimated scf accuracy    <       0.84699566 Ry

     iteration # 22     ecut=    80.00 Ry     beta= 0.30
     Davidson diagonalization with overlap
     ethr =  5.20E-04,  avg # of iterations =  1.0

     negative rho (up,down):  9.883E-06 0.000E+00

     total cpu time spent up to now is      788.9 secs

     total energy              =   -2303.02016482 Ry
     Harris-Foulkes estimate   =   -2303.02058418 Ry
     estimated scf accuracy    <       0.50143540 Ry

     iteration # 23     ecut=    80.00 Ry     beta= 0.30
     Davidson diagonalization with overlap
     ethr =  3.08E-04,  avg # of iterations =  1.7

     negative rho (up,down):  9.946E-06 0.000E+00

     total cpu time spent up to now is      815.7 secs

     total energy              =   -2303.03854454 Ry
     Harris-Foulkes estimate   =   -2303.04480762 Ry
     estimated scf accuracy    <       0.58711636 Ry

     iteration # 24     ecut=    80.00 Ry     beta= 0.30
     Davidson diagonalization with overlap
     ethr =  3.08E-04,  avg # of iterations =  1.0

     negative rho (up,down):  3.394E-06 0.000E+00

     total cpu time spent up to now is      841.0 secs

     total energy              =   -2303.03458821 Ry
     Harris-Foulkes estimate   =   -2303.03934827 Ry
     estimated scf accuracy    <       0.37648956 Ry

     iteration # 25     ecut=    80.00 Ry     beta= 0.30
     Davidson diagonalization with overlap
     ethr =  2.31E-04,  avg # of iterations =  1.7

     total cpu time spent up to now is      867.4 secs

     total energy              =   -2303.04646700 Ry
     Harris-Foulkes estimate   =   -2303.05410615 Ry
     estimated scf accuracy    <       0.39689443 Ry

     iteration # 26     ecut=    80.00 Ry     beta= 0.30
     Davidson diagonalization with overlap
     ethr =  2.31E-04,  avg # of iterations =  1.8

     total cpu time spent up to now is      894.5 secs

     total energy              =   -2303.04848722 Ry
     Harris-Foulkes estimate   =   -2303.04929710 Ry
     estimated scf accuracy    <       0.14513303 Ry

     iteration # 27     ecut=    80.00 Ry     beta= 0.30
     Davidson diagonalization with overlap
     ethr =  8.90E-05,  avg # of iterations =  2.7

     total cpu time spent up to now is      923.2 secs

     total energy              =   -2303.03982027 Ry
     Harris-Foulkes estimate   =   -2303.05750917 Ry
     estimated scf accuracy    <       0.19740843 Ry

     iteration # 28     ecut=    80.00 Ry     beta= 0.30
     Davidson diagonalization with overlap
     ethr =  8.90E-05,  avg # of iterations =  4.2

     negative rho (up,down):  2.519E-07 0.000E+00

     total cpu time spent up to now is      954.0 secs

     total energy              =   -2303.04635692 Ry
     Harris-Foulkes estimate   =   -2303.05638375 Ry
     estimated scf accuracy    <       0.31806090 Ry

     iteration # 29     ecut=    80.00 Ry     beta= 0.30
     Davidson diagonalization with overlap
     ethr =  8.90E-05,  avg # of iterations =  1.2

     negative rho (up,down):  5.107E-07 0.000E+00

     total cpu time spent up to now is      979.5 secs

     total energy              =   -2303.04907712 Ry
     Harris-Foulkes estimate   =   -2303.04949102 Ry
     estimated scf accuracy    <       0.05335274 Ry

     iteration # 30     ecut=    80.00 Ry     beta= 0.30
     Davidson diagonalization with overlap
     ethr =  3.27E-05,  avg # of iterations =  2.3

     negative rho (up,down):  2.210E-07 0.000E+00

     total cpu time spent up to now is     1007.6 secs

     total energy              =   -2303.04864973 Ry
     Harris-Foulkes estimate   =   -2303.04944476 Ry
     estimated scf accuracy    <       0.03294617 Ry

     iteration # 31     ecut=    80.00 Ry     beta= 0.30
     Davidson diagonalization with overlap
     ethr =  2.02E-05,  avg # of iterations =  1.3

     negative rho (up,down):  6.992E-07 0.000E+00

     total cpu time spent up to now is     1034.2 secs

     total energy              =   -2303.04886912 Ry
     Harris-Foulkes estimate   =   -2303.04897149 Ry
     estimated scf accuracy    <       0.00817475 Ry

     iteration # 32     ecut=    80.00 Ry     beta= 0.30
     Davidson diagonalization with overlap
     ethr =  5.02E-06,  avg # of iterations =  2.5

     negative rho (up,down):  1.044E-07 0.000E+00

     total cpu time spent up to now is     1061.9 secs

     total energy              =   -2303.04877593 Ry
     Harris-Foulkes estimate   =   -2303.04896323 Ry
     estimated scf accuracy    <       0.00500034 Ry

     iteration # 33     ecut=    80.00 Ry     beta= 0.30
     Davidson diagonalization with overlap
     ethr =  3.07E-06,  avg # of iterations =  1.3

     total cpu time spent up to now is     1087.8 secs

     total energy              =   -2303.04885143 Ry
     Harris-Foulkes estimate   =   -2303.04885207 Ry
     estimated scf accuracy    <       0.00012379 Ry

     iteration # 34     ecut=    80.00 Ry     beta= 0.30
     Davidson diagonalization with overlap
     ethr =  7.59E-08,  avg # of iterations =  2.0

     total cpu time spent up to now is     1114.8 secs

     total energy              =   -2303.04885323 Ry
     Harris-Foulkes estimate   =   -2303.04885453 Ry
     estimated scf accuracy    <       0.00009199 Ry

     iteration # 35     ecut=    80.00 Ry     beta= 0.30
     Davidson diagonalization with overlap
     ethr =  5.64E-08,  avg # of iterations =  1.0

     total cpu time spent up to now is     1140.0 secs

     total energy              =   -2303.04885328 Ry
     Harris-Foulkes estimate   =   -2303.04885372 Ry
     estimated scf accuracy    <       0.00003094 Ry

     iteration # 36     ecut=    80.00 Ry     beta= 0.30
     Davidson diagonalization with overlap
     ethr =  1.90E-08,  avg # of iterations =  1.0

     total cpu time spent up to now is     1165.3 secs

     total energy              =   -2303.04885343 Ry
     Harris-Foulkes estimate   =   -2303.04885378 Ry
     estimated scf accuracy    <       0.00000264 Ry

     iteration # 37     ecut=    80.00 Ry     beta= 0.30
     Davidson diagonalization with overlap
     ethr =  1.62E-09,  avg # of iterations =  1.1

     total cpu time spent up to now is     1192.2 secs

     total energy              =   -2303.04885360 Ry
     Harris-Foulkes estimate   =   -2303.04885364 Ry
     estimated scf accuracy    <       0.00000102 Ry

     iteration # 38     ecut=    80.00 Ry     beta= 0.30
     Davidson diagonalization with overlap
     ethr =  6.25E-10,  avg # of iterations =  1.0

     total cpu time spent up to now is     1218.6 secs

     End of self-consistent calculation

          k = 0.0000 0.0000 0.0000 ( 21311 PWs)   bands (ev):

  -109.9139-109.9135-109.5808-109.5797 -75.8004 -75.7724 -75.7715 -66.6311
   -66.6308 -66.2472 -66.2472 -66.2469 -66.2469 -66.2162 -66.2151 -65.9029
   -65.9029 -65.9018 -65.9018 -42.8547 -42.8547 -42.7766 -42.7766 -42.7758
   -42.7758 -42.7474 -42.6921 -42.6913 -16.1686 -15.9518 -15.9375 -14.9781
   -14.7884 -14.7672  -3.0076  -2.6059  -2.3148  -1.5531  -1.5530  -1.3141
    -1.3141  -1.3092  -1.3092  -0.3055   0.2908   0.8402   1.6210   1.6210
     1.8535   1.9147   1.9418   1.9418   2.0667   2.0737   2.0924   2.0924
     3.1600   3.1600   3.2933   3.2934   3.3160   3.3160   3.4906   3.4906
     3.4965   3.4966   3.7344   3.7344   3.7437   3.7438   3.8077   3.8078
     4.0254   4.0254   4.1198   4.2316   4.2604   4.2604   4.3260   4.3261
     4.7100   5.5485   5.5545   8.0543   8.5611   8.5612   8.5695   8.6586
     8.6587   8.7530   8.7530   9.8041   9.9911  10.8140  11.4172  11.4595
    12.3505  12.5185

     occupation numbers 
     1.0000   1.0000   1.0000   1.0000   1.0000   1.0000   1.0000   1.0000
     1.0000   1.0000   1.0000   1.0000   1.0000   1.0000   1.0000   1.0000
     1.0000   1.0000   1.0000   1.0000   1.0000   1.0000   1.0000   1.0000
     1.0000   1.0000   1.0000   1.0000   1.0000   1.0000   1.0000   1.0000
     1.0000   1.0000   1.0000   1.0000   1.0000   1.0000   1.0000   1.0000
     1.0000   1.0000   1.0000   1.0000   1.0000   1.0000   1.0000   1.0000
     1.0000   1.0000   1.0000   1.0000   1.0000   1.0000   1.0000   1.0000
     1.0000   1.0000   1.0000   1.0000   1.0000   1.0000   1.0000   1.0000
     1.0000   1.0000   1.0000   1.0000   1.0000   1.0000   1.0000   1.0000
     1.0000   1.0000   1.0000   1.0000   1.0000   1.0000   1.0000   1.0000
     1.0000   0.9999   0.9999   0.0000   0.0000   0.0000   0.0000   0.0000
     0.0000   0.0000   0.0000   0.0000   0.0000   0.0000   0.0000   0.0000
     0.0000   0.0000

          k = 0.0000 0.1443 0.0000 ( 21311 PWs)   bands (ev):

  -109.9138-109.9135-109.5807-109.5796 -75.7982 -75.7702 -75.7694 -66.6310
   -66.6307 -66.2483 -66.2480 -66.2475 -66.2472 -66.2161 -66.2150 -65.9040
   -65.9032 -65.9030 -65.9021 -42.8819 -42.8608 -42.8034 -42.8026 -42.7827
   -42.7818 -42.7426 -42.6874 -42.6866 -16.0338 -15.8190 -15.8036 -15.0244
   -14.8334 -14.8144  -2.8018  -2.4242  -2.1132  -1.7873  -1.5784  -1.5435
    -1.4027  -1.1651  -1.1591   0.2659   0.7024   0.8778   1.0196   1.0800
     1.2229   1.2872   1.5581   1.6435   2.1826   2.2164   2.3388   2.3461
     3.1943   3.3066   3.3736   3.4274   3.4520   3.4859   3.5374   3.5425
     3.5596   3.6728   3.6961   3.7036   3.7792   3.8038   3.8195   3.8613
     4.0262   4.1329   4.1946   4.2743   4.3277   4.3541   4.3792   4.4759
     4.7479   5.6724   5.6771   7.8143   7.9961   8.3048   8.4930   8.5623
     8.5926   8.6831   9.0740  10.2331  10.3669  11.2678  11.8497  11.9489
    12.9051  12.9710

     occupation numbers 
     1.0000   1.0000   1.0000   1.0000   1.0000   1.0000   1.0000   1.0000
     1.0000   1.0000   1.0000   1.0000   1.0000   1.0000   1.0000   1.0000
     1.0000   1.0000   1.0000   1.0000   1.0000   1.0000   1.0000   1.0000
     1.0000   1.0000   1.0000   1.0000   1.0000   1.0000   1.0000   1.0000
     1.0000   1.0000   1.0000   1.0000   1.0000   1.0000   1.0000   1.0000
     1.0000   1.0000   1.0000   1.0000   1.0000   1.0000   1.0000   1.0000
     1.0000   1.0000   1.0000   1.0000   1.0000   1.0000   1.0000   1.0000
     1.0000   1.0000   1.0000   1.0000   1.0000   1.0000   1.0000   1.0000
     1.0000   1.0000   1.0000   1.0000   1.0000   1.0000   1.0000   1.0000
     1.0000   1.0000   1.0000   1.0000   1.0000   1.0000   1.0000   1.0000
     1.0000   0.9926   0.9915   0.0000   0.0000   0.0000   0.0000   0.0000
     0.0000   0.0000   0.0000   0.0000   0.0000   0.0000   0.0000   0.0000
     0.0000   0.0000

          k = 0.0000 0.2887 0.0000 ( 21278 PWs)   bands (ev):

  -109.9136-109.9133-109.5805-109.5795 -75.7928 -75.7649 -75.7641 -66.6308
   -66.6305 -66.2511 -66.2508 -66.2482 -66.2479 -66.2158 -66.2148 -65.9068
   -65.9058 -65.9039 -65.9029 -42.9471 -42.8755 -42.8677 -42.8668 -42.7972
   -42.7963 -42.7310 -42.6759 -42.6751 -15.7103 -15.5026 -15.4821 -15.1215
   -14.9294 -14.9155  -2.4211  -2.1880  -1.8963  -1.8130  -1.5437  -1.3740
    -1.0788  -0.8480  -0.8380  -0.3993  -0.2249  -0.2094   0.7502   0.8303
     1.0782   1.1287   1.1312   1.3867   2.5651   2.7607   2.9268   2.9342
     3.2243   3.3609   3.4113   3.4572   3.5328   3.5802   3.6575   3.6965
     3.7078   3.7290   3.7380   3.7599   3.8830   3.9078   3.9988   4.0001
     4.0857   4.2383   4.2911   4.3670   4.5300   4.5842   4.5963   4.6961
     4.7675   5.8427   5.8608   7.0375   7.5240   7.8597   8.4198   8.5225
     8.6056   8.9931   9.5902  11.2164  11.2538  12.4029  12.9528  13.2543
    13.8638  14.0886

     occupation numbers 
     1.0000   1.0000   1.0000   1.0000   1.0000   1.0000   1.0000   1.0000
     1.0000   1.0000   1.0000   1.0000   1.0000   1.0000   1.0000   1.0000
     1.0000   1.0000   1.0000   1.0000   1.0000   1.0000   1.0000   1.0000
     1.0000   1.0000   1.0000   1.0000   1.0000   1.0000   1.0000   1.0000
     1.0000   1.0000   1.0000   1.0000   1.0000   1.0000   1.0000   1.0000
     1.0000   1.0000   1.0000   1.0000   1.0000   1.0000   1.0000   1.0000
     1.0000   1.0000   1.0000   1.0000   1.0000   1.0000   1.0000   1.0000
     1.0000   1.0000   1.0000   1.0000   1.0000   1.0000   1.0000   1.0000
     1.0000   1.0000   1.0000   1.0000   1.0000   1.0000   1.0000   1.0000
     1.0000   1.0000   1.0000   1.0000   1.0000   1.0000   1.0000   1.0000
     1.0000   0.7472   0.6836   0.0000   0.0000   0.0000   0.0000   0.0000
     0.0000   0.0000   0.0000   0.0000   0.0000   0.0000   0.0000   0.0000
     0.0000   0.0000

          k = 0.0000 0.4330 0.0000 ( 21290 PWs)   bands (ev):

  -109.9134-109.9131-109.5803-109.5793 -75.7875 -75.7596 -75.7588 -66.6305
   -66.6302 -66.2538 -66.2535 -66.2490 -66.2486 -66.2155 -66.2145 -65.9096
   -65.9086 -65.9047 -65.9036 -43.0117 -42.9313 -42.9305 -42.8901 -42.8117
   -42.8108 -42.7193 -42.6644 -42.6636 -15.4677 -15.2759 -15.2422 -15.1116
   -14.9255 -14.9159  -2.4748  -2.1962  -2.0962  -1.4575  -1.2312  -0.9811
    -0.9089  -0.9037  -0.7036  -0.6877  -0.6730  -0.5086   0.5326   0.7511
     0.8319   1.0202   1.0207   1.0786   2.5927   2.8223   3.0559   3.0633
     3.2043   3.3196   3.4034   3.6145   3.6698   3.7718   3.7970   3.8381
     3.9138   3.9217   3.9254   3.9583   3.9601   4.1929   4.1941   4.3119
     4.3159   4.4648   4.4922   4.5535   4.5887   4.6842   4.7079   4.7695
     4.8107   6.3761   6.4081   7.0941   7.7420   8.0510   8.4829   8.5876
     8.6688   9.1659   9.6152  11.5603  11.5613  12.8220  12.9411  13.1477
    13.4517  14.1109

     occupation numbers 
     1.0000   1.0000   1.0000   1.0000   1.0000   1.0000   1.0000   1.0000
     1.0000   1.0000   1.0000   1.0000   1.0000   1.0000   1.0000   1.0000
     1.0000   1.0000   1.0000   1.0000   1.0000   1.0000   1.0000   1.0000
     1.0000   1.0000   1.0000   1.0000   1.0000   1.0000   1.0000   1.0000
     1.0000   1.0000   1.0000   1.0000   1.0000   1.0000   1.0000   1.0000
     1.0000   1.0000   1.0000   1.0000   1.0000   1.0000   1.0000   1.0000
     1.0000   1.0000   1.0000   1.0000   1.0000   1.0000   1.0000   1.0000
     1.0000   1.0000   1.0000   1.0000   1.0000   1.0000   1.0000   1.0000
     1.0000   1.0000   1.0000   1.0000   1.0000   1.0000   1.0000   1.0000
     1.0000   1.0000   1.0000   1.0000   1.0000   1.0000   1.0000   1.0000
     1.0000   0.0000   0.0000   0.0000   0.0000   0.0000   0.0000   0.0000
     0.0000   0.0000   0.0000   0.0000   0.0000   0.0000   0.0000   0.0000
     0.0000   0.0000

          k = 0.0000-0.5774 0.0000 ( 21322 PWs)   bands (ev):

  -109.9133-109.9130-109.5803-109.5792 -75.7852 -75.7575 -75.7566 -66.6304
   -66.6301 -66.2550 -66.2546 -66.2493 -66.2490 -66.2154 -66.2144 -65.9108
   -65.9097 -65.9050 -65.9039 -43.0383 -42.9575 -42.9567 -42.8962 -42.8177
   -42.8168 -42.7144 -42.6596 -42.6588 -15.4504 -15.2531 -15.2267 -15.0288
   -14.8356 -14.8254  -2.6394  -2.3829  -2.3361  -1.2326  -1.2086  -0.8996
    -0.7239  -0.7227  -0.6902  -0.6744  -0.4690  -0.4087   0.1736   0.5426
     0.8222   0.8370   1.1264   1.2004   2.5437   2.7866   3.0121   3.0303
     3.1580   3.2754   3.3608   3.6697   3.8417   3.8426   3.8570   3.8733
     3.8825   4.0111   4.0114   4.1052   4.1098   4.1352   4.2075   4.2083
     4.2789   4.2799   4.4277   4.4899   4.4941   4.8327   4.8543   5.0313
     5.1328   7.7926   7.8548   7.9251   8.2358   8.2381   8.5454   8.6512
     8.7339   8.8346   8.9135   9.4401   9.4474  11.9144  12.3450  14.6069
    14.6967  14.9357

     occupation numbers 
     1.0000   1.0000   1.0000   1.0000   1.0000   1.0000   1.0000   1.0000
     1.0000   1.0000   1.0000   1.0000   1.0000   1.0000   1.0000   1.0000
     1.0000   1.0000   1.0000   1.0000   1.0000   1.0000   1.0000   1.0000
     1.0000   1.0000   1.0000   1.0000   1.0000   1.0000   1.0000   1.0000
     1.0000   1.0000   1.0000   1.0000   1.0000   1.0000   1.0000   1.0000
     1.0000   1.0000   1.0000   1.0000   1.0000   1.0000   1.0000   1.0000
     1.0000   1.0000   1.0000   1.0000   1.0000   1.0000   1.0000   1.0000
     1.0000   1.0000   1.0000   1.0000   1.0000   1.0000   1.0000   1.0000
     1.0000   1.0000   1.0000   1.0000   1.0000   1.0000   1.0000   1.0000
     1.0000   1.0000   1.0000   1.0000   1.0000   1.0000   1.0000   1.0000
     1.0000   0.0000   0.0000   0.0000   0.0000   0.0000   0.0000   0.0000
     0.0000   0.0000   0.0000   0.0000   0.0000   0.0000   0.0000   0.0000
     0.0000   0.0000

          k = 0.1250 0.2165 0.0000 ( 21252 PWs)   bands (ev):

  -109.9136-109.9133-109.5806-109.5795 -75.7944 -75.7665 -75.7656 -66.6309
   -66.6305 -66.2501 -66.2498 -66.2481 -66.2478 -66.2159 -66.2148 -65.9059
   -65.9048 -65.9038 -65.9028 -42.9249 -42.8743 -42.8459 -42.8450 -42.7960
   -42.7952 -42.7344 -42.6793 -42.6785 -15.8014 -15.5911 -15.5726 -15.0991
   -14.9069 -14.8915  -2.4519  -2.2300  -1.8412  -1.8342  -1.6846  -1.5832
    -1.1988  -0.9693  -0.9647   0.0936   0.2816   0.2977   0.6793   0.7322
     0.9192   0.9618   1.1257   1.4303   2.5795   2.6933   2.7942   2.7952
     3.2802   3.2931   3.3871   3.3940   3.4664   3.5041   3.6198   3.6245
     3.6928   3.7126   3.7315   3.7402   3.8271   3.8490   3.9634   3.9653
     4.1396   4.2257   4.3014   4.3520   4.4173   4.5113   4.5598   4.6172
     4.8123   5.8294   5.8316   7.3478   7.6105   7.9879   8.2890   8.3157
     8.3716   9.0973   9.5074  10.9231  10.9838  12.0609  12.6490  12.8486
    13.7061  13.7147

     occupation numbers 
     1.0000   1.0000   1.0000   1.0000   1.0000   1.0000   1.0000   1.0000
     1.0000   1.0000   1.0000   1.0000   1.0000   1.0000   1.0000   1.0000
     1.0000   1.0000   1.0000   1.0000   1.0000   1.0000   1.0000   1.0000
     1.0000   1.0000   1.0000   1.0000   1.0000   1.0000   1.0000   1.0000
     1.0000   1.0000   1.0000   1.0000   1.0000   1.0000   1.0000   1.0000
     1.0000   1.0000   1.0000   1.0000   1.0000   1.0000   1.0000   1.0000
     1.0000   1.0000   1.0000   1.0000   1.0000   1.0000   1.0000   1.0000
     1.0000   1.0000   1.0000   1.0000   1.0000   1.0000   1.0000   1.0000
     1.0000   1.0000   1.0000   1.0000   1.0000   1.0000   1.0000   1.0000
     1.0000   1.0000   1.0000   1.0000   1.0000   1.0000   1.0000   1.0000
     1.0000   0.7895   0.7827   0.0000   0.0000   0.0000   0.0000   0.0000
     0.0000   0.0000   0.0000   0.0000   0.0000   0.0000   0.0000   0.0000
     0.0000   0.0000

          k = 0.1250 0.3608 0.0000 ( 21269 PWs)   bands (ev):

  -109.9135-109.9132-109.5804-109.5793 -75.7890 -75.7612 -75.7604 -66.6306
   -66.6303 -66.2526 -66.2523 -66.2491 -66.2488 -66.2156 -66.2146 -65.9084
   -65.9074 -65.9048 -65.9038 -42.9830 -42.9031 -42.9022 -42.8958 -42.8172
   -42.8164 -42.7227 -42.6678 -42.6670 -15.4871 -15.2996 -15.2593 -15.1607
   -14.9823 -14.9727  -2.2385  -2.0162  -1.7862  -1.6334  -1.3485  -1.2441
    -1.1107  -0.9958  -0.9197  -0.5094  -0.3059  -0.2627   0.3044   0.5359
     0.5728   0.7977   1.0875   1.2348   2.8349   3.0255   3.2092   3.2231
     3.3149   3.3906   3.4424   3.5131   3.5639   3.6089   3.6791   3.6992
     3.7501   3.7662   3.8611   3.9010   3.9634   4.0448   4.0871   4.2588
     4.3158   4.4050   4.4494   4.5274   4.5876   4.6392   4.6847   4.7335
     4.7787   6.1633   6.1754   7.0803   7.5033   7.9743   8.1674   8.3247
     8.3915   9.4336   9.7379  12.0275  12.0457  13.3166  13.7217  13.9595
    14.0644  14.2788

     occupation numbers 
     1.0000   1.0000   1.0000   1.0000   1.0000   1.0000   1.0000   1.0000
     1.0000   1.0000   1.0000   1.0000   1.0000   1.0000   1.0000   1.0000
     1.0000   1.0000   1.0000   1.0000   1.0000   1.0000   1.0000   1.0000
     1.0000   1.0000   1.0000   1.0000   1.0000   1.0000   1.0000   1.0000
     1.0000   1.0000   1.0000   1.0000   1.0000   1.0000   1.0000   1.0000
     1.0000   1.0000   1.0000   1.0000   1.0000   1.0000   1.0000   1.0000
     1.0000   1.0000   1.0000   1.0000   1.0000   1.0000   1.0000   1.0000
     1.0000   1.0000   1.0000   1.0000   1.0000   1.0000   1.0000   1.0000
     1.0000   1.0000   1.0000   1.0000   1.0000   1.0000   1.0000   1.0000
     1.0000   1.0000   1.0000   1.0000   1.0000   1.0000   1.0000   1.0000
     1.0000   0.0038   0.0026   0.0000   0.0000   0.0000   0.0000   0.0000
     0.0000   0.0000   0.0000   0.0000   0.0000   0.0000   0.0000   0.0000
     0.0000   0.0000

          k = 0.1250 0.5052 0.0000 ( 21292 PWs)   bands (ev):

  -109.9133-109.9130-109.5803-109.5792 -75.7852 -75.7575 -75.7566 -66.6304
   -66.6301 -66.2544 -66.2541 -66.2499 -66.2495 -66.2154 -66.2144 -65.9102
   -65.9091 -65.9056 -65.9045 -43.0235 -42.9430 -42.9421 -42.9112 -42.8324
   -42.8316 -42.7145 -42.6597 -42.6589 -15.3943 -15.2103 -15.1697 -15.0758
   -14.8947 -14.8861  -2.3792  -2.1158  -2.0515  -1.3899  -1.2272  -1.0841
    -0.9691  -0.9159  -0.6265  -0.6231  -0.4223  -0.2899   0.3543   0.4866
     0.5950   0.6316   0.7445   0.8987   2.8178   2.9868   3.1514   3.1784
     3.2722   3.3832   3.4449   3.6421   3.6869   3.7767   3.7952   3.8529
     3.8851   3.8953   3.9213   4.0088   4.0156   4.1567   4.1594   4.2108
     4.2713   4.3039   4.3742   4.4755   4.5982   4.9024   4.9322   5.0529
     5.1287   7.3781   7.4162   7.6861   8.0517   8.2017   8.3618   8.4812
     8.5178   9.2983   9.5243  10.4892  10.4904  12.3986  12.6679  14.0210
    14.0372  15.2138

     occupation numbers 
     1.0000   1.0000   1.0000   1.0000   1.0000   1.0000   1.0000   1.0000
     1.0000   1.0000   1.0000   1.0000   1.0000   1.0000   1.0000   1.0000
     1.0000   1.0000   1.0000   1.0000   1.0000   1.0000   1.0000   1.0000
     1.0000   1.0000   1.0000   1.0000   1.0000   1.0000   1.0000   1.0000
     1.0000   1.0000   1.0000   1.0000   1.0000   1.0000   1.0000   1.0000
     1.0000   1.0000   1.0000   1.0000   1.0000   1.0000   1.0000   1.0000
     1.0000   1.0000   1.0000   1.0000   1.0000   1.0000   1.0000   1.0000
     1.0000   1.0000   1.0000   1.0000   1.0000   1.0000   1.0000   1.0000
     1.0000   1.0000   1.0000   1.0000   1.0000   1.0000   1.0000   1.0000
     1.0000   1.0000   1.0000   1.0000   1.0000   1.0000   1.0000   1.0000
     1.0000   0.0000   0.0000   0.0000   0.0000   0.0000   0.0000   0.0000
     0.0000   0.0000   0.0000   0.0000   0.0000   0.0000   0.0000   0.0000
     0.0000   0.0000

          k = 0.2500 0.4330 0.0000 ( 21254 PWs)   bands (ev):

  -109.9133-109.9130-109.5803-109.5792 -75.7852 -75.7575 -75.7566 -66.6304
   -66.6301 -66.2535 -66.2532 -66.2507 -66.2504 -66.2154 -66.2144 -65.9093
   -65.9083 -65.9064 -65.9054 -43.0029 -42.9320 -42.9227 -42.9219 -42.8529
   -42.8521 -42.7145 -42.6597 -42.6589 -15.2634 -15.2595 -15.0309 -15.0301
   -15.0294 -15.0285  -1.9022  -1.7846  -1.5436  -1.4922  -1.4674  -1.4177
    -1.1361  -0.8487  -0.5973  -0.4690  -0.4511  -0.1944  -0.1895  -0.0463
    -0.0325   0.7604   0.9506   0.9563   3.1441   3.2550   3.2873   3.3357
     3.3891   3.5177   3.5444   3.5508   3.6020   3.6292   3.6712   3.7422
     3.7777   3.7902   3.8497   3.9362   3.9640   4.0768   4.0779   4.2454
     4.2568   4.3383   4.3521   4.4783   4.6830   4.9534   5.0098   5.0829
     5.1022   7.2438   7.2545   7.5582   7.6759   8.0652   8.0976   8.4470
     8.4629   9.7044   9.8961  12.3435  12.3445  12.9737  12.9760  13.2239
    13.3481  14.0607

     occupation numbers 
     1.0000   1.0000   1.0000   1.0000   1.0000   1.0000   1.0000   1.0000
     1.0000   1.0000   1.0000   1.0000   1.0000   1.0000   1.0000   1.0000
     1.0000   1.0000   1.0000   1.0000   1.0000   1.0000   1.0000   1.0000
     1.0000   1.0000   1.0000   1.0000   1.0000   1.0000   1.0000   1.0000
     1.0000   1.0000   1.0000   1.0000   1.0000   1.0000   1.0000   1.0000
     1.0000   1.0000   1.0000   1.0000   1.0000   1.0000   1.0000   1.0000
     1.0000   1.0000   1.0000   1.0000   1.0000   1.0000   1.0000   1.0000
     1.0000   1.0000   1.0000   1.0000   1.0000   1.0000   1.0000   1.0000
     1.0000   1.0000   1.0000   1.0000   1.0000   1.0000   1.0000   1.0000
     1.0000   1.0000   1.0000   1.0000   1.0000   1.0000   1.0000   1.0000
     1.0000   0.0000   0.0000   0.0000   0.0000   0.0000   0.0000   0.0000
     0.0000   0.0000   0.0000   0.0000   0.0000   0.0000   0.0000   0.0000
     0.0000   0.0000

          k = 0.2500 0.5774 0.0000 ( 21294 PWs)   bands (ev):

  -109.9133-109.9130-109.5802-109.5792 -75.7837 -75.7559 -75.7551 -66.6303
   -66.6300 -66.2536 -66.2533 -66.2516 -66.2513 -66.2154 -66.2143 -65.9094
   -65.9084 -65.9074 -65.9063 -43.0042 -42.9540 -42.9239 -42.9231 -42.8746
   -42.8737 -42.7111 -42.6564 -42.6556 -15.2790 -15.1775 -15.0523 -15.0392
   -14.9385 -14.9335  -1.8903  -1.6485  -1.5573  -1.4383  -1.2416  -1.2266
    -1.0222  -1.0202  -0.5793  -0.5780  -0.5491  -0.3260  -0.2787  -0.1079
    -0.0960   0.6339   0.8207   0.8502   3.1712   3.2883   3.3632   3.4047
     3.4149   3.5663   3.5741   3.6002   3.6078   3.7063   3.7293   3.7698
     3.7743   3.7948   3.8153   3.8869   3.8941   4.0744   4.0812   4.1164
     4.1221   4.1828   4.1990   4.5895   4.6997   5.1182   5.1274   5.2760
     5.3360   7.8911   7.9435   8.0070   8.0086   8.0181   8.0698   9.6393
     9.6414  10.0747  10.1074  10.2714  10.3011  11.8770  11.9713  12.4431
    12.4442  14.5563

     occupation numbers 
     1.0000   1.0000   1.0000   1.0000   1.0000   1.0000   1.0000   1.0000
     1.0000   1.0000   1.0000   1.0000   1.0000   1.0000   1.0000   1.0000
     1.0000   1.0000   1.0000   1.0000   1.0000   1.0000   1.0000   1.0000
     1.0000   1.0000   1.0000   1.0000   1.0000   1.0000   1.0000   1.0000
     1.0000   1.0000   1.0000   1.0000   1.0000   1.0000   1.0000   1.0000
     1.0000   1.0000   1.0000   1.0000   1.0000   1.0000   1.0000   1.0000
     1.0000   1.0000   1.0000   1.0000   1.0000   1.0000   1.0000   1.0000
     1.0000   1.0000   1.0000   1.0000   1.0000   1.0000   1.0000   1.0000
     1.0000   1.0000   1.0000   1.0000   1.0000   1.0000   1.0000   1.0000
     1.0000   1.0000   1.0000   1.0000   1.0000   1.0000   1.0000   1.0000
     1.0000   0.0000   0.0000   0.0000   0.0000   0.0000   0.0000   0.0000
     0.0000   0.0000   0.0000   0.0000   0.0000   0.0000   0.0000   0.0000
     0.0000   0.0000

          k =-0.1250 0.0722 0.0000 ( 21311 PWs)   bands (ev):

  -109.9138-109.9135-109.5807-109.5796 -75.7982 -75.7702 -75.7694 -66.6310
   -66.6307 -66.2483 -66.2480 -66.2475 -66.2472 -66.2161 -66.2150 -65.9040
   -65.9032 -65.9030 -65.9021 -42.8819 -42.8608 -42.8034 -42.8026 -42.7827
   -42.7818 -42.7426 -42.6874 -42.6866 -16.0338 -15.8190 -15.8036 -15.0244
   -14.8334 -14.8144  -2.8018  -2.4242  -2.1132  -1.7873  -1.5784  -1.5434
    -1.4027  -1.1651  -1.1591   0.2659   0.7024   0.8778   1.0197   1.0800
     1.2229   1.2872   1.5581   1.6435   2.1826   2.2164   2.3388   2.3461
     3.1943   3.3066   3.3736   3.4274   3.4520   3.4859   3.5374   3.5425
     3.5596   3.6728   3.6961   3.7036   3.7792   3.8038   3.8195   3.8613
     4.0262   4.1329   4.1947   4.2743   4.3277   4.3541   4.3792   4.4759
     4.7479   5.6724   5.6771   7.8143   7.9961   8.3048   8.4930   8.5624
     8.5926   8.6831   9.0740  10.2331  10.3669  11.2678  11.8497  11.9489
    12.9051  12.9710

     occupation numbers 
     1.0000   1.0000   1.0000   1.0000   1.0000   1.0000   1.0000   1.0000
     1.0000   1.0000   1.0000   1.0000   1.0000   1.0000   1.0000   1.0000
     1.0000   1.0000   1.0000   1.0000   1.0000   1.0000   1.0000   1.0000
     1.0000   1.0000   1.0000   1.0000   1.0000   1.0000   1.0000   1.0000
     1.0000   1.0000   1.0000   1.0000   1.0000   1.0000   1.0000   1.0000
     1.0000   1.0000   1.0000   1.0000   1.0000   1.0000   1.0000   1.0000
     1.0000   1.0000   1.0000   1.0000   1.0000   1.0000   1.0000   1.0000
     1.0000   1.0000   1.0000   1.0000   1.0000   1.0000   1.0000   1.0000
     1.0000   1.0000   1.0000   1.0000   1.0000   1.0000   1.0000   1.0000
     1.0000   1.0000   1.0000   1.0000   1.0000   1.0000   1.0000   1.0000
     1.0000   0.9926   0.9915   0.0000   0.0000   0.0000   0.0000   0.0000
     0.0000   0.0000   0.0000   0.0000   0.0000   0.0000   0.0000   0.0000
     0.0000   0.0000

          k =-0.2500 0.1443 0.0000 ( 21278 PWs)   bands (ev):

  -109.9136-109.9133-109.5805-109.5795 -75.7928 -75.7649 -75.7641 -66.6308
   -66.6305 -66.2511 -66.2508 -66.2482 -66.2479 -66.2158 -66.2148 -65.9068
   -65.9058 -65.9039 -65.9029 -42.9471 -42.8754 -42.8677 -42.8668 -42.7972
   -42.7963 -42.7310 -42.6759 -42.6751 -15.7103 -15.5026 -15.4821 -15.1215
   -14.9294 -14.9155  -2.4210  -2.1880  -1.8963  -1.8130  -1.5437  -1.3740
    -1.0787  -0.8481  -0.8380  -0.3994  -0.2249  -0.2093   0.7502   0.8303
     1.0782   1.1287   1.1312   1.3867   2.5651   2.7607   2.9268   2.9342
     3.2243   3.3609   3.4113   3.4572   3.5328   3.5802   3.6575   3.6966
     3.7079   3.7290   3.7380   3.7599   3.8830   3.9077   3.9987   4.0000
     4.0857   4.2383   4.2911   4.3671   4.5299   4.5842   4.5962   4.6961
     4.7675   5.8427   5.8608   7.0375   7.5239   7.8597   8.4198   8.5225
     8.6056   8.9931   9.5903  11.2164  11.2538  12.4029  12.9528  13.2543
    13.8638  14.0886

     occupation numbers 
     1.0000   1.0000   1.0000   1.0000   1.0000   1.0000   1.0000   1.0000
     1.0000   1.0000   1.0000   1.0000   1.0000   1.0000   1.0000   1.0000
     1.0000   1.0000   1.0000   1.0000   1.0000   1.0000   1.0000   1.0000
     1.0000   1.0000   1.0000   1.0000   1.0000   1.0000   1.0000   1.0000
     1.0000   1.0000   1.0000   1.0000   1.0000   1.0000   1.0000   1.0000
     1.0000   1.0000   1.0000   1.0000   1.0000   1.0000   1.0000   1.0000
     1.0000   1.0000   1.0000   1.0000   1.0000   1.0000   1.0000   1.0000
     1.0000   1.0000   1.0000   1.0000   1.0000   1.0000   1.0000   1.0000
     1.0000   1.0000   1.0000   1.0000   1.0000   1.0000   1.0000   1.0000
     1.0000   1.0000   1.0000   1.0000   1.0000   1.0000   1.0000   1.0000
     1.0000   0.7473   0.6836   0.0000   0.0000   0.0000   0.0000   0.0000
     0.0000   0.0000   0.0000   0.0000   0.0000   0.0000   0.0000   0.0000
     0.0000   0.0000

          k =-0.3750 0.2165 0.0000 ( 21290 PWs)   bands (ev):

  -109.9134-109.9131-109.5803-109.5793 -75.7875 -75.7596 -75.7588 -66.6305
   -66.6302 -66.2538 -66.2535 -66.2490 -66.2487 -66.2155 -66.2145 -65.9096
   -65.9086 -65.9047 -65.9036 -43.0117 -42.9313 -42.9305 -42.8901 -42.8117
   -42.8108 -42.7193 -42.6644 -42.6636 -15.4677 -15.2760 -15.2422 -15.1116
   -14.9255 -14.9158  -2.4748  -2.1962  -2.0962  -1.4575  -1.2312  -0.9811
    -0.9089  -0.9036  -0.7036  -0.6878  -0.6731  -0.5086   0.5326   0.7510
     0.8320   1.0202   1.0207   1.0786   2.5927   2.8223   3.0559   3.0633
     3.2043   3.3196   3.4034   3.6145   3.6698   3.7718   3.7970   3.8381
     3.9138   3.9218   3.9254   3.9583   3.9601   4.1929   4.1941   4.3119
     4.3159   4.4648   4.4922   4.5535   4.5887   4.6842   4.7080   4.7696
     4.8107   6.3761   6.4081   7.0941   7.7420   8.0509   8.4829   8.5877
     8.6687   9.1659   9.6152  11.5603  11.5613  12.8220  12.9411  13.1477
    13.4517  14.1109

     occupation numbers 
     1.0000   1.0000   1.0000   1.0000   1.0000   1.0000   1.0000   1.0000
     1.0000   1.0000   1.0000   1.0000   1.0000   1.0000   1.0000   1.0000
     1.0000   1.0000   1.0000   1.0000   1.0000   1.0000   1.0000   1.0000
     1.0000   1.0000   1.0000   1.0000   1.0000   1.0000   1.0000   1.0000
     1.0000   1.0000   1.0000   1.0000   1.0000   1.0000   1.0000   1.0000
     1.0000   1.0000   1.0000   1.0000   1.0000   1.0000   1.0000   1.0000
     1.0000   1.0000   1.0000   1.0000   1.0000   1.0000   1.0000   1.0000
     1.0000   1.0000   1.0000   1.0000   1.0000   1.0000   1.0000   1.0000
     1.0000   1.0000   1.0000   1.0000   1.0000   1.0000   1.0000   1.0000
     1.0000   1.0000   1.0000   1.0000   1.0000   1.0000   1.0000   1.0000
     1.0000   0.0000   0.0000   0.0000   0.0000   0.0000   0.0000   0.0000
     0.0000   0.0000   0.0000   0.0000   0.0000   0.0000   0.0000   0.0000
     0.0000   0.0000

          k = 0.5000-0.2887 0.0000 ( 21322 PWs)   bands (ev):

  -109.9133-109.9130-109.5803-109.5792 -75.7852 -75.7575 -75.7566 -66.6304
   -66.6301 -66.2550 -66.2546 -66.2493 -66.2490 -66.2154 -66.2144 -65.9108
   -65.9098 -65.9050 -65.9039 -43.0383 -42.9575 -42.9567 -42.8962 -42.8177
   -42.8168 -42.7144 -42.6596 -42.6588 -15.4504 -15.2532 -15.2267 -15.0288
   -14.8356 -14.8253  -2.6394  -2.3829  -2.3361  -1.2326  -1.2086  -0.8995
    -0.7239  -0.7228  -0.6903  -0.6745  -0.4690  -0.4087   0.1736   0.5426
     0.8222   0.8370   1.1264   1.2004   2.5436   2.7866   3.0122   3.0303
     3.1580   3.2755   3.3608   3.6697   3.8417   3.8426   3.8570   3.8733
     3.8825   4.0111   4.0114   4.1052   4.1098   4.1352   4.2075   4.2083
     4.2788   4.2799   4.4276   4.4899   4.4941   4.8327   4.8543   5.0313
     5.1328   7.7926   7.8548   7.9251   8.2359   8.2381   8.5454   8.6512
     8.7338   8.8347   8.9135   9.4401   9.4473  11.9144  12.3450  14.6069
    14.6967  14.9357

     occupation numbers 
     1.0000   1.0000   1.0000   1.0000   1.0000   1.0000   1.0000   1.0000
     1.0000   1.0000   1.0000   1.0000   1.0000   1.0000   1.0000   1.0000
     1.0000   1.0000   1.0000   1.0000   1.0000   1.0000   1.0000   1.0000
     1.0000   1.0000   1.0000   1.0000   1.0000   1.0000   1.0000   1.0000
     1.0000   1.0000   1.0000   1.0000   1.0000   1.0000   1.0000   1.0000
     1.0000   1.0000   1.0000   1.0000   1.0000   1.0000   1.0000   1.0000
     1.0000   1.0000   1.0000   1.0000   1.0000   1.0000   1.0000   1.0000
     1.0000   1.0000   1.0000   1.0000   1.0000   1.0000   1.0000   1.0000
     1.0000   1.0000   1.0000   1.0000   1.0000   1.0000   1.0000   1.0000
     1.0000   1.0000   1.0000   1.0000   1.0000   1.0000   1.0000   1.0000
     1.0000   0.0000   0.0000   0.0000   0.0000   0.0000   0.0000   0.0000
     0.0000   0.0000   0.0000   0.0000   0.0000   0.0000   0.0000   0.0000
     0.0000   0.0000

          k =-0.1250 0.2165 0.0000 ( 21252 PWs)   bands (ev):

  -109.9136-109.9133-109.5806-109.5795 -75.7944 -75.7665 -75.7656 -66.6309
   -66.6305 -66.2501 -66.2498 -66.2481 -66.2478 -66.2159 -66.2148 -65.9059
   -65.9048 -65.9038 -65.9028 -42.9250 -42.8743 -42.8459 -42.8450 -42.7960
   -42.7952 -42.7344 -42.6793 -42.6785 -15.8014 -15.5911 -15.5726 -15.0991
   -14.9069 -14.8915  -2.4518  -2.2300  -1.8412  -1.8342  -1.6846  -1.5832
    -1.1987  -0.9694  -0.9647   0.0936   0.2817   0.2978   0.6793   0.7322
     0.9192   0.9618   1.1257   1.4303   2.5795   2.6933   2.7942   2.7952
     3.2802   3.2931   3.3871   3.3940   3.4664   3.5041   3.6198   3.6246
     3.6928   3.7126   3.7315   3.7402   3.8272   3.8490   3.9634   3.9653
     4.1396   4.2257   4.3014   4.3520   4.4172   4.5113   4.5597   4.6173
     4.8123   5.8294   5.8316   7.3478   7.6104   7.9879   8.2889   8.3157
     8.3717   9.0973   9.5075  10.9231  10.9838  12.0609  12.6490  12.8486
    13.7061  13.7147

     occupation numbers 
     1.0000   1.0000   1.0000   1.0000   1.0000   1.0000   1.0000   1.0000
     1.0000   1.0000   1.0000   1.0000   1.0000   1.0000   1.0000   1.0000
     1.0000   1.0000   1.0000   1.0000   1.0000   1.0000   1.0000   1.0000
     1.0000   1.0000   1.0000   1.0000   1.0000   1.0000   1.0000   1.0000
     1.0000   1.0000   1.0000   1.0000   1.0000   1.0000   1.0000   1.0000
     1.0000   1.0000   1.0000   1.0000   1.0000   1.0000   1.0000   1.0000
     1.0000   1.0000   1.0000   1.0000   1.0000   1.0000   1.0000   1.0000
     1.0000   1.0000   1.0000   1.0000   1.0000   1.0000   1.0000   1.0000
     1.0000   1.0000   1.0000   1.0000   1.0000   1.0000   1.0000   1.0000
     1.0000   1.0000   1.0000   1.0000   1.0000   1.0000   1.0000   1.0000
     1.0000   0.7895   0.7827   0.0000   0.0000   0.0000   0.0000   0.0000
     0.0000   0.0000   0.0000   0.0000   0.0000   0.0000   0.0000   0.0000
     0.0000   0.0000

          k =-0.2500 0.2887 0.0000 ( 21269 PWs)   bands (ev):

  -109.9135-109.9132-109.5804-109.5793 -75.7890 -75.7612 -75.7604 -66.6306
   -66.6303 -66.2526 -66.2523 -66.2491 -66.2488 -66.2156 -66.2146 -65.9084
   -65.9074 -65.9048 -65.9038 -42.9831 -42.9031 -42.9022 -42.8957 -42.8172
   -42.8164 -42.7227 -42.6678 -42.6670 -15.4871 -15.2996 -15.2593 -15.1607
   -14.9823 -14.9727  -2.2385  -2.0162  -1.7862  -1.6334  -1.3485  -1.2441
    -1.1107  -0.9958  -0.9197  -0.5094  -0.3059  -0.2627   0.3044   0.5359
     0.5728   0.7977   1.0875   1.2347   2.8349   3.0255   3.2092   3.2232
     3.3149   3.3906   3.4424   3.5131   3.5639   3.6089   3.6791   3.6992
     3.7501   3.7662   3.8611   3.9010   3.9634   4.0448   4.0871   4.2588
     4.3158   4.4050   4.4494   4.5274   4.5876   4.6392   4.6847   4.7335
     4.7787   6.1633   6.1754   7.0804   7.5032   7.9743   8.1673   8.3248
     8.3916   9.4336   9.7380  12.0275  12.0457  13.3166  13.7217  13.9595
    14.0643  14.2788

     occupation numbers 
     1.0000   1.0000   1.0000   1.0000   1.0000   1.0000   1.0000   1.0000
     1.0000   1.0000   1.0000   1.0000   1.0000   1.0000   1.0000   1.0000
     1.0000   1.0000   1.0000   1.0000   1.0000   1.0000   1.0000   1.0000
     1.0000   1.0000   1.0000   1.0000   1.0000   1.0000   1.0000   1.0000
     1.0000   1.0000   1.0000   1.0000   1.0000   1.0000   1.0000   1.0000
     1.0000   1.0000   1.0000   1.0000   1.0000   1.0000   1.0000   1.0000
     1.0000   1.0000   1.0000   1.0000   1.0000   1.0000   1.0000   1.0000
     1.0000   1.0000   1.0000   1.0000   1.0000   1.0000   1.0000   1.0000
     1.0000   1.0000   1.0000   1.0000   1.0000   1.0000   1.0000   1.0000
     1.0000   1.0000   1.0000   1.0000   1.0000   1.0000   1.0000   1.0000
     1.0000   0.0038   0.0026   0.0000   0.0000   0.0000   0.0000   0.0000
     0.0000   0.0000   0.0000   0.0000   0.0000   0.0000   0.0000   0.0000
     0.0000   0.0000

          k = 0.3750 0.0722 0.0000 ( 21269 PWs)   bands (ev):

  -109.9135-109.9132-109.5804-109.5793 -75.7890 -75.7612 -75.7604 -66.6306
   -66.6303 -66.2526 -66.2523 -66.2491 -66.2488 -66.2156 -66.2146 -65.9084
   -65.9074 -65.9048 -65.9038 -42.9831 -42.9031 -42.9022 -42.8957 -42.8172
   -42.8164 -42.7227 -42.6678 -42.6670 -15.4871 -15.2996 -15.2593 -15.1607
   -14.9823 -14.9727  -2.2385  -2.0162  -1.7862  -1.6334  -1.3485  -1.2441
    -1.1107  -0.9958  -0.9197  -0.5094  -0.3059  -0.2627   0.3044   0.5359
     0.5728   0.7977   1.0875   1.2347   2.8349   3.0255   3.2092   3.2231
     3.3149   3.3906   3.4424   3.5131   3.5639   3.6089   3.6791   3.6992
     3.7501   3.7662   3.8611   3.9010   3.9634   4.0448   4.0871   4.2589
     4.3158   4.4050   4.4494   4.5273   4.5876   4.6392   4.6847   4.7335
     4.7787   6.1633   6.1754   7.0803   7.5032   7.9743   8.1674   8.3248
     8.3916   9.4336   9.7379  12.0275  12.0457  13.3166  13.7217  13.9595
    14.0643  14.2788

     occupation numbers 
     1.0000   1.0000   1.0000   1.0000   1.0000   1.0000   1.0000   1.0000
     1.0000   1.0000   1.0000   1.0000   1.0000   1.0000   1.0000   1.0000
     1.0000   1.0000   1.0000   1.0000   1.0000   1.0000   1.0000   1.0000
     1.0000   1.0000   1.0000   1.0000   1.0000   1.0000   1.0000   1.0000
     1.0000   1.0000   1.0000   1.0000   1.0000   1.0000   1.0000   1.0000
     1.0000   1.0000   1.0000   1.0000   1.0000   1.0000   1.0000   1.0000
     1.0000   1.0000   1.0000   1.0000   1.0000   1.0000   1.0000   1.0000
     1.0000   1.0000   1.0000   1.0000   1.0000   1.0000   1.0000   1.0000
     1.0000   1.0000   1.0000   1.0000   1.0000   1.0000   1.0000   1.0000
     1.0000   1.0000   1.0000   1.0000   1.0000   1.0000   1.0000   1.0000
     1.0000   0.0038   0.0026   0.0000   0.0000   0.0000   0.0000   0.0000
     0.0000   0.0000   0.0000   0.0000   0.0000   0.0000   0.0000   0.0000
     0.0000   0.0000

          k =-0.3750 0.3608 0.0000 ( 21292 PWs)   bands (ev):

  -109.9133-109.9130-109.5803-109.5792 -75.7852 -75.7575 -75.7566 -66.6304
   -66.6301 -66.2544 -66.2540 -66.2499 -66.2495 -66.2154 -66.2144 -65.9102
   -65.9091 -65.9056 -65.9045 -43.0235 -42.9430 -42.9421 -42.9112 -42.8324
   -42.8316 -42.7145 -42.6597 -42.6589 -15.3943 -15.2103 -15.1697 -15.0758
   -14.8947 -14.8861  -2.3792  -2.1158  -2.0515  -1.3899  -1.2272  -1.0841
    -0.9691  -0.9159  -0.6265  -0.6231  -0.4223  -0.2899   0.3544   0.4866
     0.5950   0.6316   0.7445   0.8987   2.8177   2.9868   3.1515   3.1784
     3.2722   3.3832   3.4449   3.6421   3.6869   3.7767   3.7952   3.8529
     3.8851   3.8953   3.9213   4.0088   4.0156   4.1567   4.1594   4.2108
     4.2713   4.3039   4.3742   4.4755   4.5982   4.9024   4.9322   5.0529
     5.1287   7.3781   7.4162   7.6862   8.0516   8.2017   8.3617   8.4812
     8.5179   9.2983   9.5242  10.4892  10.4904  12.3986  12.6679  14.0210
    14.0372  15.2138

     occupation numbers 
     1.0000   1.0000   1.0000   1.0000   1.0000   1.0000   1.0000   1.0000
     1.0000   1.0000   1.0000   1.0000   1.0000   1.0000   1.0000   1.0000
     1.0000   1.0000   1.0000   1.0000   1.0000   1.0000   1.0000   1.0000
     1.0000   1.0000   1.0000   1.0000   1.0000   1.0000   1.0000   1.0000
     1.0000   1.0000   1.0000   1.0000   1.0000   1.0000   1.0000   1.0000
     1.0000   1.0000   1.0000   1.0000   1.0000   1.0000   1.0000   1.0000
     1.0000   1.0000   1.0000   1.0000   1.0000   1.0000   1.0000   1.0000
     1.0000   1.0000   1.0000   1.0000   1.0000   1.0000   1.0000   1.0000
     1.0000   1.0000   1.0000   1.0000   1.0000   1.0000   1.0000   1.0000
     1.0000   1.0000   1.0000   1.0000   1.0000   1.0000   1.0000   1.0000
     1.0000   0.0000   0.0000   0.0000   0.0000   0.0000   0.0000   0.0000
     0.0000   0.0000   0.0000   0.0000   0.0000   0.0000   0.0000   0.0000
     0.0000   0.0000

          k = 0.5000 0.1443 0.0000 ( 21292 PWs)   bands (ev):

  -109.9133-109.9130-109.5803-109.5792 -75.7852 -75.7575 -75.7566 -66.6304
   -66.6301 -66.2544 -66.2541 -66.2499 -66.2495 -66.2154 -66.2144 -65.9102
   -65.9091 -65.9056 -65.9045 -43.0235 -42.9430 -42.9421 -42.9112 -42.8324
   -42.8316 -42.7145 -42.6597 -42.6589 -15.3943 -15.2103 -15.1697 -15.0758
   -14.8947 -14.8861  -2.3792  -2.1158  -2.0516  -1.3899  -1.2272  -1.0841
    -0.9691  -0.9159  -0.6266  -0.6231  -0.4223  -0.2899   0.3543   0.4866
     0.5950   0.6316   0.7445   0.8987   2.8178   2.9868   3.1514   3.1784
     3.2722   3.3832   3.4449   3.6421   3.6869   3.7767   3.7952   3.8529
     3.8851   3.8953   3.9213   4.0088   4.0156   4.1567   4.1594   4.2108
     4.2713   4.3039   4.3742   4.4755   4.5982   4.9024   4.9322   5.0529
     5.1287   7.3781   7.4162   7.6861   8.0516   8.2017   8.3618   8.4812
     8.5179   9.2983   9.5242  10.4892  10.4904  12.3986  12.6679  14.0210
    14.0372  15.2138

     occupation numbers 
     1.0000   1.0000   1.0000   1.0000   1.0000   1.0000   1.0000   1.0000
     1.0000   1.0000   1.0000   1.0000   1.0000   1.0000   1.0000   1.0000
     1.0000   1.0000   1.0000   1.0000   1.0000   1.0000   1.0000   1.0000
     1.0000   1.0000   1.0000   1.0000   1.0000   1.0000   1.0000   1.0000
     1.0000   1.0000   1.0000   1.0000   1.0000   1.0000   1.0000   1.0000
     1.0000   1.0000   1.0000   1.0000   1.0000   1.0000   1.0000   1.0000
     1.0000   1.0000   1.0000   1.0000   1.0000   1.0000   1.0000   1.0000
     1.0000   1.0000   1.0000   1.0000   1.0000   1.0000   1.0000   1.0000
     1.0000   1.0000   1.0000   1.0000   1.0000   1.0000   1.0000   1.0000
     1.0000   1.0000   1.0000   1.0000   1.0000   1.0000   1.0000   1.0000
     1.0000   0.0000   0.0000   0.0000   0.0000   0.0000   0.0000   0.0000
     0.0000   0.0000   0.0000   0.0000   0.0000   0.0000   0.0000   0.0000
     0.0000   0.0000

          k =-0.2500 0.4330 0.0000 ( 21254 PWs)   bands (ev):

  -109.9133-109.9130-109.5803-109.5792 -75.7852 -75.7575 -75.7566 -66.6304
   -66.6301 -66.2535 -66.2532 -66.2507 -66.2504 -66.2154 -66.2144 -65.9093
   -65.9083 -65.9064 -65.9054 -43.0030 -42.9320 -42.9227 -42.9219 -42.8529
   -42.8521 -42.7145 -42.6597 -42.6589 -15.2633 -15.2595 -15.0309 -15.0301
   -15.0294 -15.0285  -1.9021  -1.7846  -1.5436  -1.4922  -1.4675  -1.4176
    -1.1361  -0.8487  -0.5972  -0.4691  -0.4511  -0.1944  -0.1895  -0.0464
    -0.0326   0.7603   0.9506   0.9564   3.1441   3.2550   3.2873   3.3357
     3.3891   3.5177   3.5444   3.5508   3.6021   3.6292   3.6712   3.7422
     3.7777   3.7902   3.8497   3.9362   3.9640   4.0768   4.0779   4.2454
     4.2567   4.3384   4.3521   4.4782   4.6830   4.9534   5.0099   5.0829
     5.1022   7.2438   7.2545   7.5582   7.6760   8.0652   8.0975   8.4470
     8.4630   9.7044   9.8961  12.3435  12.3445  12.9737  12.9760  13.2239
    13.3481  14.0607

     occupation numbers 
     1.0000   1.0000   1.0000   1.0000   1.0000   1.0000   1.0000   1.0000
     1.0000   1.0000   1.0000   1.0000   1.0000   1.0000   1.0000   1.0000
     1.0000   1.0000   1.0000   1.0000   1.0000   1.0000   1.0000   1.0000
     1.0000   1.0000   1.0000   1.0000   1.0000   1.0000   1.0000   1.0000
     1.0000   1.0000   1.0000   1.0000   1.0000   1.0000   1.0000   1.0000
     1.0000   1.0000   1.0000   1.0000   1.0000   1.0000   1.0000   1.0000
     1.0000   1.0000   1.0000   1.0000   1.0000   1.0000   1.0000   1.0000
     1.0000   1.0000   1.0000   1.0000   1.0000   1.0000   1.0000   1.0000
     1.0000   1.0000   1.0000   1.0000   1.0000   1.0000   1.0000   1.0000
     1.0000   1.0000   1.0000   1.0000   1.0000   1.0000   1.0000   1.0000
     1.0000   0.0000   0.0000   0.0000   0.0000   0.0000   0.0000   0.0000
     0.0000   0.0000   0.0000   0.0000   0.0000   0.0000   0.0000   0.0000
     0.0000   0.0000

          k =-0.3750 0.5052 0.0000 ( 21294 PWs)   bands (ev):

  -109.9133-109.9130-109.5802-109.5792 -75.7837 -75.7559 -75.7551 -66.6303
   -66.6300 -66.2536 -66.2533 -66.2516 -66.2513 -66.2154 -66.2143 -65.9094
   -65.9084 -65.9074 -65.9063 -43.0042 -42.9540 -42.9239 -42.9231 -42.8746
   -42.8738 -42.7111 -42.6564 -42.6556 -15.2790 -15.1775 -15.0523 -15.0392
   -14.9385 -14.9335  -1.8902  -1.6485  -1.5573  -1.4383  -1.2416  -1.2266
    -1.0222  -1.0203  -0.5792  -0.5780  -0.5490  -0.3261  -0.2787  -0.1079
    -0.0960   0.6339   0.8207   0.8502   3.1712   3.2882   3.3632   3.4048
     3.4149   3.5664   3.5741   3.6003   3.6078   3.7063   3.7293   3.7698
     3.7743   3.7948   3.8153   3.8869   3.8941   4.0744   4.0812   4.1164
     4.1221   4.1828   4.1990   4.5895   4.6997   5.1182   5.1274   5.2760
     5.3360   7.8911   7.9435   8.0070   8.0086   8.0181   8.0698   9.6393
     9.6414  10.0747  10.1074  10.2714  10.3011  11.8770  11.9713  12.4431
    12.4442  14.5563

     occupation numbers 
     1.0000   1.0000   1.0000   1.0000   1.0000   1.0000   1.0000   1.0000
     1.0000   1.0000   1.0000   1.0000   1.0000   1.0000   1.0000   1.0000
     1.0000   1.0000   1.0000   1.0000   1.0000   1.0000   1.0000   1.0000
     1.0000   1.0000   1.0000   1.0000   1.0000   1.0000   1.0000   1.0000
     1.0000   1.0000   1.0000   1.0000   1.0000   1.0000   1.0000   1.0000
     1.0000   1.0000   1.0000   1.0000   1.0000   1.0000   1.0000   1.0000
     1.0000   1.0000   1.0000   1.0000   1.0000   1.0000   1.0000   1.0000
     1.0000   1.0000   1.0000   1.0000   1.0000   1.0000   1.0000   1.0000
     1.0000   1.0000   1.0000   1.0000   1.0000   1.0000   1.0000   1.0000
     1.0000   1.0000   1.0000   1.0000   1.0000   1.0000   1.0000   1.0000
     1.0000   0.0000   0.0000   0.0000   0.0000   0.0000   0.0000   0.0000
     0.0000   0.0000   0.0000   0.0000   0.0000   0.0000   0.0000   0.0000
     0.0000   0.0000

     the Fermi energy is     5.9068 ev

!    total energy              =   -2303.04885362 Ry
     Harris-Foulkes estimate   =   -2303.04885362 Ry
     estimated scf accuracy    <       0.00000028 Ry

     The total energy is the sum of the following terms:

     one-electron contribution =  -20023.19877599 Ry
     hartree contribution      =   10047.24822497 Ry
     xc contribution           =    -247.61215883 Ry
     ewald contribution        =    7920.51563397 Ry
     smearing contrib. (-TS)   =      -0.00177774 Ry

     convergence has been achieved in  38 iterations
     Writing meta-gga kinetic term

     Forces acting on atoms (cartesian axes, Ry/au):

     atom    1 type  1   force =     0.00000000    0.00000000    0.00000000
     atom    2 type  1   force =    -0.00002421    0.00001398    0.00110481
     atom    3 type  1   force =     0.00002421   -0.00001398   -0.00110481
     atom    4 type  2   force =     0.00000013   -0.00000007   -0.02163758
     atom    5 type  2   force =    -0.00000013    0.00000007    0.02163758
     atom    6 type  2   force =    -0.00005388    0.00003111   -0.00134729
     atom    7 type  2   force =     0.00005388   -0.00003111    0.00134729
     atom    8 type  3   force =    -0.00000767    0.00000443    0.02553800
     atom    9 type  3   force =     0.00000767   -0.00000443   -0.02553800
     atom   10 type  3   force =    -0.00000557    0.00000322   -0.00021580
     atom   11 type  3   force =    -0.00001513    0.00000874    0.00049522
     atom   12 type  3   force =     0.00001513   -0.00000874   -0.00049522
     atom   13 type  3   force =     0.00000557   -0.00000322    0.00021580
     The non-local contrib.  to forces
     atom    1 type  1   force =     0.00000000    0.00000000    0.00000000
     atom    2 type  1   force =     0.00000385   -0.00000222    0.00304801
     atom    3 type  1   force =    -0.00000385    0.00000222   -0.00304801
     atom    4 type  2   force =    -0.00000134    0.00000077   -0.48305010
     atom    5 type  2   force =     0.00000134   -0.00000077    0.48305010
     atom    6 type  2   force =    -0.00004659    0.00002690   -0.00419573
     atom    7 type  2   force =     0.00004659   -0.00002690    0.00419573
     atom    8 type  3   force =     0.00000940   -0.00000543    0.38451878
     atom    9 type  3   force =    -0.00000940    0.00000543   -0.38451878
     atom   10 type  3   force =     0.00000570   -0.00000329    0.19661599
     atom   11 type  3   force =     0.00001204   -0.00000695   -0.24362200
     atom   12 type  3   force =    -0.00001204    0.00000695    0.24362200
     atom   13 type  3   force =    -0.00000570    0.00000329   -0.19661599
     The ionic contribution  to forces
     atom    1 type  1   force =     0.00000043    0.00000074    0.00003681
     atom    2 type  1   force =    -0.00043085    0.00024827  280.99337007
     atom    3 type  1   force =     0.00043044   -0.00024899 -280.99329513
     atom    4 type  2   force =    -0.00000821    0.00000477 -473.59245659
     atom    5 type  2   force =     0.00000823   -0.00000472  473.59235514
     atom    6 type  2   force =    -0.00002678    0.00001543 -159.26355814
     atom    7 type  2   force =     0.00002675   -0.00001548  159.26339603
     atom    8 type  3   force =    -0.00012843    0.00007462 -118.42087536
     atom    9 type  3   force =     0.00012884   -0.00007391  118.42089893
     atom   10 type  3   force =    -0.00015231    0.00008747  -19.12619336
     atom   11 type  3   force =    -0.00027688    0.00015983  -79.82528373
     atom   12 type  3   force =     0.00027686   -0.00015987   79.82535882
     atom   13 type  3   force =     0.00015191   -0.00008817   19.12624649
     The local contribution  to forces
     atom    1 type  1   force =    -0.00000000    0.00000000    0.00023387
     atom    2 type  1   force =     0.00039763   -0.00024136 -280.99442162
     atom    3 type  1   force =    -0.00040783    0.00022367  280.99533856
     atom    4 type  2   force =     0.00001019   -0.00000588  474.05352177
     atom    5 type  2   force =    -0.00001019    0.00000588 -474.05352175
     atom    6 type  2   force =     0.00000514   -0.00003603  159.26613708
     atom    7 type  2   force =    -0.00003375   -0.00001359 -159.26613712
     atom    8 type  3   force =     0.00011168   -0.00006448  118.06185676
     atom    9 type  3   force =    -0.00011168    0.00006448 -118.06185345
     atom   10 type  3   force =     0.00013934   -0.00008385   18.92965143
     atom   11 type  3   force =     0.00024820   -0.00014669   80.06953948
     atom   12 type  3   force =    -0.00025114    0.00014160  -80.06933932
     atom   13 type  3   force =    -0.00014228    0.00007874  -18.92945193
     The core correction contribution to forces
     atom    1 type  1   force =     0.00000000    0.00000000    0.00000000
     atom    2 type  1   force =     0.00000000    0.00000000    0.00000000
     atom    3 type  1   force =     0.00000000    0.00000000    0.00000000
     atom    4 type  2   force =     0.00000000    0.00000000    0.00000000
     atom    5 type  2   force =     0.00000000    0.00000000    0.00000000
     atom    6 type  2   force =     0.00000000    0.00000000    0.00000000
     atom    7 type  2   force =     0.00000000    0.00000000    0.00000000
     atom    8 type  3   force =     0.00000000    0.00000000    0.00000000
     atom    9 type  3   force =     0.00000000    0.00000000    0.00000000
     atom   10 type  3   force =     0.00000000    0.00000000    0.00000000
     atom   11 type  3   force =     0.00000000    0.00000000    0.00000000
     atom   12 type  3   force =     0.00000000    0.00000000    0.00000000
     atom   13 type  3   force =     0.00000000    0.00000000    0.00000000
     The Hubbard contrib.    to forces
     atom    1 type  1   force =     0.00000000    0.00000000    0.00000000
     atom    2 type  1   force =     0.00000000    0.00000000    0.00000000
     atom    3 type  1   force =     0.00000000    0.00000000    0.00000000
     atom    4 type  2   force =     0.00000000    0.00000000    0.00000000
     atom    5 type  2   force =     0.00000000    0.00000000    0.00000000
     atom    6 type  2   force =     0.00000000    0.00000000    0.00000000
     atom    7 type  2   force =     0.00000000    0.00000000    0.00000000
     atom    8 type  3   force =     0.00000000    0.00000000    0.00000000
     atom    9 type  3   force =     0.00000000    0.00000000    0.00000000
     atom   10 type  3   force =     0.00000000    0.00000000    0.00000000
     atom   11 type  3   force =     0.00000000    0.00000000    0.00000000
     atom   12 type  3   force =     0.00000000    0.00000000    0.00000000
     atom   13 type  3   force =     0.00000000    0.00000000    0.00000000
     The SCF correction term to forces
     atom    1 type  1   force =     0.00000000    0.00000000    0.00000000
     atom    2 type  1   force =    -0.00000014    0.00000008   -0.00039571
     atom    3 type  1   force =     0.00000014   -0.00000008    0.00039571
     atom    4 type  2   force =    -0.00000050    0.00000029    0.00029663
     atom    5 type  2   force =     0.00000050   -0.00000029   -0.00029663
     atom    6 type  2   force =     0.00000004   -0.00000002    0.00018843
     atom    7 type  2   force =    -0.00000004    0.00000002   -0.00018843
     atom    8 type  3   force =    -0.00000012    0.00000007    0.00005127
     atom    9 type  3   force =     0.00000012   -0.00000007   -0.00005127
     atom   10 type  3   force =     0.00000000    0.00000000    0.00000000
     atom   11 type  3   force =     0.00000003   -0.00000002   -0.00000090
     atom   12 type  3   force =    -0.00000003    0.00000002    0.00000090
     atom   13 type  3   force =     0.00000000    0.00000000    0.00000000

     Total force =     0.047406     Total SCF correction =     0.000752

     BFGS Geometry Optimization

     number of scf cycles    =   1
     number of bfgs steps    =   0

     energy   new            =   -2303.0488536167 Ry

     new trust radius        =       0.0255379993 bohr
     new conv_thr            =       0.0000010000 Ry


ATOMIC_POSITIONS (angstrom)
Rh       0.000000000   0.000000000  16.058850110    0   0   0
Rh       1.531647631   0.884294254  21.756375623
Rh      -0.000002527   1.768592885  10.361323107
Cu       0.000000069  -0.000000040   7.488549886
Cu      -0.000000069   0.000000040  24.629151875
Cu       1.531631930   0.884303319  13.233031968
Cu       0.000013174   1.768583820  18.884669793
O       -0.000004060   0.000002344   9.345621242
O        0.000004060  -0.000002344  22.772080467
O        1.531660442   0.884286858  15.045481856    0   0   0
O        1.531652434   0.884291481  11.390087934
O       -0.000007330   1.768595658  20.727610746
O       -0.000015338   1.768600282  17.072216823    0   0   0



     Writing output data file pwscf.save/
     Writing meta-gga kinetic term
     charge density from previous step

     total cpu time spent up to now is     1219.7 secs

     Self-consistent Calculation

     iteration #  1     ecut=    80.00 Ry     beta= 0.30
     Davidson diagonalization with overlap
     c_bands:  1 eigenvalues not converged
     c_bands:  1 eigenvalues not converged
     ethr =  1.00E-06,  avg # of iterations = 11.0

     total cpu time spent up to now is     1286.8 secs

     total energy              =   -2301.85073549 Ry
     Harris-Foulkes estimate   =   -2303.44356113 Ry
     estimated scf accuracy    <       9.24644106 Ry

     iteration #  2     ecut=    80.00 Ry     beta= 0.30
     Davidson diagonalization with overlap
     ethr =  5.67E-03,  avg # of iterations =  4.7

     total cpu time spent up to now is     1323.4 secs

     total energy              =   -2302.99578800 Ry
     Harris-Foulkes estimate   =   -2314.69602662 Ry
     estimated scf accuracy    <    1923.90011459 Ry

     iteration #  3     ecut=    80.00 Ry     beta= 0.30
     Davidson diagonalization with overlap
     ethr =  5.67E-03,  avg # of iterations =  3.6

     total cpu time spent up to now is     1354.3 secs

     total energy              =   -2301.23303199 Ry
     Harris-Foulkes estimate   =   -2304.86517613 Ry
     estimated scf accuracy    <     569.37307423 Ry

     iteration #  4     ecut=    80.00 Ry     beta= 0.30
     Davidson diagonalization with overlap
     ethr =  5.67E-03,  avg # of iterations =  3.9

     total cpu time spent up to now is     1385.9 secs

     total energy              =   -2302.02096801 Ry
     Harris-Foulkes estimate   =   -2303.41702871 Ry
     estimated scf accuracy    <      14.76728956 Ry

     iteration #  5     ecut=    80.00 Ry     beta= 0.30
     Davidson diagonalization with overlap
     ethr =  5.67E-03,  avg # of iterations =  2.6

     total cpu time spent up to now is     1415.1 secs

     total energy              =   -2301.95880382 Ry
     Harris-Foulkes estimate   =   -2303.30081035 Ry
     estimated scf accuracy    <      20.27897638 Ry

     iteration #  6     ecut=    80.00 Ry     beta= 0.30
     Davidson diagonalization with overlap
     ethr =  5.67E-03,  avg # of iterations =  4.7

     total cpu time spent up to now is     1448.1 secs

     total energy              =   -2302.99980529 Ry
     Harris-Foulkes estimate   =   -2303.56808095 Ry
     estimated scf accuracy    <      36.66013588 Ry

[...]
     1.0000   1.0000   1.0000   1.0000   1.0000   1.0000   1.0000   1.0000
     1.0000   1.0000   1.0000   1.0000   1.0000   1.0000   1.0000   1.0000
     1.0000   0.0058   0.0045   0.0000   0.0000   0.0000   0.0000   0.0000
     0.0000   0.0000   0.0000   0.0000   0.0000   0.0000   0.0000   0.0000
     0.0000   0.0000

          k =-0.3750 0.3608 0.0000 ( 21292 PWs)   bands (ev):

  -109.8563-109.8560-109.4804-109.4794 -75.7231 -75.7225 -75.7223 -66.5809
   -66.5806 -66.1952 -66.1948 -66.1907 -66.1903 -66.0605 -66.0595 -65.8744
   -65.8734 -65.8698 -65.8687 -42.9609 -42.9069 -42.9060 -42.8486 -42.7937
   -42.7928 -42.6517 -42.6290 -42.6281 -15.3408 -15.1827 -15.1342 -15.0118
   -14.8264 -14.8206  -2.3341  -2.1135  -2.0358  -1.3442  -1.1947  -1.0451
    -0.9113  -0.8521  -0.4723  -0.4513  -0.3483  -0.2326   0.4115   0.5564
     0.6520   0.6742   0.9060   1.0388   2.8879   3.0506   3.2282   3.2493
     3.3181   3.4354   3.5020   3.6988   3.7433   3.8058   3.8235   3.9130
     3.9470   3.9584   3.9782   4.0204   4.0308   4.1765   4.1794   4.2678
     4.2955   4.3190   4.3938   4.4784   4.6290   4.9187   4.9500   5.1212
     5.2006   7.3903   7.4125   7.7221   8.1213   8.2776   8.4067   8.6020
     8.6399   9.3774   9.5990  10.4175  10.4187  12.4807  12.7516  13.9023
    13.9169  15.1621

     occupation numbers 
     1.0000   1.0000   1.0000   1.0000   1.0000   1.0000   1.0000   1.0000
     1.0000   1.0000   1.0000   1.0000   1.0000   1.0000   1.0000   1.0000
     1.0000   1.0000   1.0000   1.0000   1.0000   1.0000   1.0000   1.0000
     1.0000   1.0000   1.0000   1.0000   1.0000   1.0000   1.0000   1.0000
     1.0000   1.0000   1.0000   1.0000   1.0000   1.0000   1.0000   1.0000
     1.0000   1.0000   1.0000   1.0000   1.0000   1.0000   1.0000   1.0000
     1.0000   1.0000   1.0000   1.0000   1.0000   1.0000   1.0000   1.0000
     1.0000   1.0000   1.0000   1.0000   1.0000   1.0000   1.0000   1.0000
     1.0000   1.0000   1.0000   1.0000   1.0000   1.0000   1.0000   1.0000
     1.0000   1.0000   1.0000   1.0000   1.0000   1.0000   1.0000   1.0000
     1.0000   0.0000   0.0000   0.0000   0.0000   0.0000   0.0000   0.0000
     0.0000   0.0000   0.0000   0.0000   0.0000   0.0000   0.0000   0.0000
     0.0000   0.0000

          k = 0.5000 0.1443 0.0000 ( 21292 PWs)   bands (ev):

  -109.8563-109.8560-109.4804-109.4794 -75.7231 -75.7225 -75.7223 -66.5809
   -66.5806 -66.1952 -66.1948 -66.1907 -66.1903 -66.0605 -66.0595 -65.8744
   -65.8734 -65.8698 -65.8687 -42.9609 -42.9069 -42.9060 -42.8486 -42.7937
   -42.7928 -42.6517 -42.6290 -42.6281 -15.3408 -15.1827 -15.1342 -15.0117
   -14.8264 -14.8206  -2.3341  -2.1135  -2.0358  -1.3442  -1.1947  -1.0451
    -0.9113  -0.8521  -0.4723  -0.4513  -0.3484  -0.2326   0.4115   0.5564
     0.6520   0.6742   0.9060   1.0388   2.8879   3.0506   3.2282   3.2493
     3.3181   3.4354   3.5020   3.6988   3.7433   3.8058   3.8235   3.9130
     3.9470   3.9584   3.9782   4.0204   4.0308   4.1765   4.1794   4.2678
     4.2955   4.3190   4.3938   4.4784   4.6290   4.9187   4.9500   5.1212
     5.2006   7.3903   7.4125   7.7221   8.1213   8.2776   8.4068   8.6020
     8.6399   9.3774   9.5990  10.4175  10.4187  12.4807  12.7516  13.9023
    13.9169  15.1621

     occupation numbers 
     1.0000   1.0000   1.0000   1.0000   1.0000   1.0000   1.0000   1.0000
     1.0000   1.0000   1.0000   1.0000   1.0000   1.0000   1.0000   1.0000
     1.0000   1.0000   1.0000   1.0000   1.0000   1.0000   1.0000   1.0000
     1.0000   1.0000   1.0000   1.0000   1.0000   1.0000   1.0000   1.0000
     1.0000   1.0000   1.0000   1.0000   1.0000   1.0000   1.0000   1.0000
     1.0000   1.0000   1.0000   1.0000   1.0000   1.0000   1.0000   1.0000
     1.0000   1.0000   1.0000   1.0000   1.0000   1.0000   1.0000   1.0000
     1.0000   1.0000   1.0000   1.0000   1.0000   1.0000   1.0000   1.0000
     1.0000   1.0000   1.0000   1.0000   1.0000   1.0000   1.0000   1.0000
     1.0000   1.0000   1.0000   1.0000   1.0000   1.0000   1.0000   1.0000
     1.0000   0.0000   0.0000   0.0000   0.0000   0.0000   0.0000   0.0000
     0.0000   0.0000   0.0000   0.0000   0.0000   0.0000   0.0000   0.0000
     0.0000   0.0000

          k =-0.2500 0.4330 0.0000 ( 21254 PWs)   bands (ev):

  -109.8563-109.8560-109.4804-109.4794 -75.7231 -75.7225 -75.7223 -66.5809
   -66.5806 -66.1943 -66.1940 -66.1915 -66.1912 -66.0605 -66.0595 -65.8736
   -65.8725 -65.8706 -65.8696 -42.9403 -42.8862 -42.8853 -42.8694 -42.8147
   -42.8138 -42.6517 -42.6290 -42.6282 -15.2149 -15.2116 -15.0239 -15.0226
   -14.9280 -14.9268  -1.8619  -1.7497  -1.5031  -1.4730  -1.4518  -1.3796
    -1.0508  -0.7478  -0.5079  -0.4083  -0.3916  -0.0735  -0.0674   0.0038
     0.0147   0.8244   1.0993   1.1024   3.2025   3.3142   3.3433   3.3984
     3.4647   3.5770   3.5788   3.5862   3.6549   3.6889   3.7158   3.7891
     3.8313   3.8428   3.8952   3.9659   4.0082   4.0832   4.0843   4.2864
     4.3072   4.3536   4.3546   4.4998   4.7150   4.9871   5.0528   5.1520
     5.1720   7.2250   7.2315   7.6456   7.7631   8.1716   8.2148   8.4895
     8.5101   9.7894   9.9796  12.2810  12.2820  12.9111  12.9124  13.2823
    13.4077  13.9428

     occupation numbers 
     1.0000   1.0000   1.0000   1.0000   1.0000   1.0000   1.0000   1.0000
     1.0000   1.0000   1.0000   1.0000   1.0000   1.0000   1.0000   1.0000
     1.0000   1.0000   1.0000   1.0000   1.0000   1.0000   1.0000   1.0000
     1.0000   1.0000   1.0000   1.0000   1.0000   1.0000   1.0000   1.0000
     1.0000   1.0000   1.0000   1.0000   1.0000   1.0000   1.0000   1.0000
     1.0000   1.0000   1.0000   1.0000   1.0000   1.0000   1.0000   1.0000
     1.0000   1.0000   1.0000   1.0000   1.0000   1.0000   1.0000   1.0000
     1.0000   1.0000   1.0000   1.0000   1.0000   1.0000   1.0000   1.0000
     1.0000   1.0000   1.0000   1.0000   1.0000   1.0000   1.0000   1.0000
     1.0000   1.0000   1.0000   1.0000   1.0000   1.0000   1.0000   1.0000
     1.0000   0.0000   0.0000   0.0000   0.0000   0.0000   0.0000   0.0000
     0.0000   0.0000   0.0000   0.0000   0.0000   0.0000   0.0000   0.0000
     0.0000   0.0000

          k =-0.3750 0.5052 0.0000 ( 21294 PWs)   bands (ev):

  -109.8562-109.8559-109.4804-109.4793 -75.7216 -75.7209 -75.7207 -66.5808
   -66.5805 -66.1944 -66.1941 -66.1924 -66.1921 -66.0605 -66.0594 -65.8737
   -65.8726 -65.8716 -65.8705 -42.9416 -42.8914 -42.8874 -42.8865 -42.8368
   -42.8360 -42.6483 -42.6256 -42.6248 -15.2274 -15.1374 -15.0214 -14.9936
   -14.8643 -14.8623  -1.8451  -1.6365  -1.5365  -1.3920  -1.2329  -1.2133
    -0.9571  -0.9546  -0.4984  -0.3818  -0.3674  -0.2427  -0.1979  -0.0461
    -0.0301   0.6931   0.9548   0.9823   3.2235   3.3291   3.4223   3.4519
     3.4563   3.5966   3.6037   3.6528   3.6636   3.7546   3.7678   3.8226
     3.8352   3.8489   3.8764   3.9020   3.9101   4.0809   4.0822   4.1519
     4.1534   4.2219   4.2366   4.6302   4.7461   5.1359   5.1449   5.3472
     5.4075   7.9859   8.0280   8.1236   8.1244   8.1516   8.1912   9.5568
     9.5590  10.0309  10.0463  10.2964  10.3431  11.9467  12.0401  12.3740
    12.3752  14.6530

     occupation numbers 
     1.0000   1.0000   1.0000   1.0000   1.0000   1.0000   1.0000   1.0000
     1.0000   1.0000   1.0000   1.0000   1.0000   1.0000   1.0000   1.0000
     1.0000   1.0000   1.0000   1.0000   1.0000   1.0000   1.0000   1.0000
     1.0000   1.0000   1.0000   1.0000   1.0000   1.0000   1.0000   1.0000
     1.0000   1.0000   1.0000   1.0000   1.0000   1.0000   1.0000   1.0000
     1.0000   1.0000   1.0000   1.0000   1.0000   1.0000   1.0000   1.0000
     1.0000   1.0000   1.0000   1.0000   1.0000   1.0000   1.0000   1.0000
     1.0000   1.0000   1.0000   1.0000   1.0000   1.0000   1.0000   1.0000
     1.0000   1.0000   1.0000   1.0000   1.0000   1.0000   1.0000   1.0000
     1.0000   1.0000   1.0000   1.0000   1.0000   1.0000   1.0000   1.0000
     1.0000   0.0000   0.0000   0.0000   0.0000   0.0000   0.0000   0.0000
     0.0000   0.0000   0.0000   0.0000   0.0000   0.0000   0.0000   0.0000
     0.0000   0.0000

     the Fermi energy is     5.8313 ev

!    total energy              =   -2303.05254717 Ry
     Harris-Foulkes estimate   =   -2303.05254717 Ry
     estimated scf accuracy    <          6.8E-09 Ry

     The total energy is the sum of the following terms:

     one-electron contribution =  -20076.81827275 Ry
     hartree contribution      =   10074.40408490 Ry
     xc contribution           =    -247.63791331 Ry
     ewald contribution        =    7947.00142563 Ry
     smearing contrib. (-TS)   =      -0.00187164 Ry

     convergence has been achieved in  12 iterations
     Writing meta-gga kinetic term

     Forces acting on atoms (cartesian axes, Ry/au):

     atom    1 type  1   force =     0.00000000    0.00000000    0.00000000
     atom    2 type  1   force =    -0.00000075    0.00000043    0.00022798
     atom    3 type  1   force =     0.00000075   -0.00000043   -0.00022798
     atom    4 type  2   force =     0.00000007   -0.00000004    0.00002013
     atom    5 type  2   force =    -0.00000007    0.00000004   -0.00002013
     atom    6 type  2   force =     0.00003669   -0.00002119    0.00010232
     atom    7 type  2   force =    -0.00003669    0.00002119   -0.00010232
     atom    8 type  3   force =    -0.00000059    0.00000034   -0.00000709
     atom    9 type  3   force =     0.00000059   -0.00000034    0.00000709
     atom   10 type  3   force =    -0.00000632    0.00000365    0.00108186
     atom   11 type  3   force =    -0.00000109    0.00000063    0.00013792
     atom   12 type  3   force =     0.00000109   -0.00000063   -0.00013792
     atom   13 type  3   force =     0.00000632   -0.00000365   -0.00108186
     The non-local contrib.  to forces
     atom    1 type  1   force =     0.00000000    0.00000000    0.00000000
     atom    2 type  1   force =     0.00000009   -0.00000005    0.00048200
     atom    3 type  1   force =    -0.00000009    0.00000005   -0.00048200
     atom    4 type  2   force =     0.00000007   -0.00000004   -0.42387513
     atom    5 type  2   force =    -0.00000007    0.00000004    0.42387513
     atom    6 type  2   force =     0.00001326   -0.00000766   -0.00263536
     atom    7 type  2   force =    -0.00001326    0.00000766    0.00263536
     atom    8 type  3   force =    -0.00000058    0.00000033    0.45010594
     atom    9 type  3   force =     0.00000058   -0.00000033   -0.45010594
     atom   10 type  3   force =    -0.00000564    0.00000326    0.19609850
     atom   11 type  3   force =    -0.00000588    0.00000340   -0.23813883
     atom   12 type  3   force =     0.00000588   -0.00000340    0.23813883
     atom   13 type  3   force =     0.00000564   -0.00000326   -0.19609850
     The ionic contribution  to forces
     atom    1 type  1   force =     0.00000043    0.00000074    0.00003680
     atom    2 type  1   force =    -0.00000914    0.00000478  283.15921715
     atom    3 type  1   force =     0.00000871   -0.00000553 -283.15914483
     atom    4 type  2   force =     0.00000012   -0.00000004 -471.43860513
     atom    5 type  2   force =    -0.00000010    0.00000008  471.43850343
     atom    6 type  2   force =    -0.00016680    0.00009627 -159.42851768
     atom    7 type  2   force =     0.00016677   -0.00009632  159.42835510
     atom    8 type  3   force =    -0.00000886    0.00000561 -120.04424734
     atom    9 type  3   force =     0.00000929   -0.00000487  120.04427389
     atom   10 type  3   force =    -0.00001864    0.00001030  -19.10301144
     atom   11 type  3   force =     0.00003936   -0.00002275  -80.48097331
     atom   12 type  3   force =    -0.00003938    0.00002271   80.48104861
     atom   13 type  3   force =     0.00001824   -0.00001100   19.10306476
     The local contribution  to forces
     atom    1 type  1   force =    -0.00000000    0.00000000    0.00023388
     atom    2 type  1   force =     0.00000302   -0.00001350 -283.15919413
     atom    3 type  1   force =    -0.00001320   -0.00000414  283.16011506
     atom    4 type  2   force =    -0.00000011    0.00000007  471.86264727
     atom    5 type  2   force =     0.00000011   -0.00000007 -471.86264724
     atom    6 type  2   force =     0.00017597   -0.00013467  159.43116731
     atom    7 type  2   force =    -0.00020459    0.00008504 -159.43116735
     atom    8 type  3   force =     0.00000907   -0.00000523  119.59423636
     atom    9 type  3   force =    -0.00000907    0.00000523 -119.59423292
     atom   10 type  3   force =     0.00001619   -0.00001275   18.90811097
     atom   11 type  3   force =    -0.00003610    0.00001746   80.71943870
     atom   12 type  3   force =     0.00003317   -0.00002253  -80.71923685
     atom   13 type  3   force =    -0.00001914    0.00000765  -18.90791164
     The core correction contribution to forces
     atom    1 type  1   force =     0.00000000    0.00000000    0.00000000
     atom    2 type  1   force =     0.00000000    0.00000000    0.00000000
     atom    3 type  1   force =     0.00000000    0.00000000    0.00000000
     atom    4 type  2   force =     0.00000000    0.00000000    0.00000000
     atom    5 type  2   force =     0.00000000    0.00000000    0.00000000
     atom    6 type  2   force =     0.00000000    0.00000000    0.00000000
     atom    7 type  2   force =     0.00000000    0.00000000    0.00000000
     atom    8 type  3   force =     0.00000000    0.00000000    0.00000000
     atom    9 type  3   force =     0.00000000    0.00000000    0.00000000
     atom   10 type  3   force =     0.00000000    0.00000000    0.00000000
     atom   11 type  3   force =     0.00000000    0.00000000    0.00000000
     atom   12 type  3   force =     0.00000000    0.00000000    0.00000000
     atom   13 type  3   force =     0.00000000    0.00000000    0.00000000
     The Hubbard contrib.    to forces
     atom    1 type  1   force =     0.00000000    0.00000000    0.00000000
     atom    2 type  1   force =     0.00000000    0.00000000    0.00000000
     atom    3 type  1   force =     0.00000000    0.00000000    0.00000000
     atom    4 type  2   force =     0.00000000    0.00000000    0.00000000
     atom    5 type  2   force =     0.00000000    0.00000000    0.00000000
     atom    6 type  2   force =     0.00000000    0.00000000    0.00000000
     atom    7 type  2   force =     0.00000000    0.00000000    0.00000000
     atom    8 type  3   force =     0.00000000    0.00000000    0.00000000
     atom    9 type  3   force =     0.00000000    0.00000000    0.00000000
     atom   10 type  3   force =     0.00000000    0.00000000    0.00000000
     atom   11 type  3   force =     0.00000000    0.00000000    0.00000000
     atom   12 type  3   force =     0.00000000    0.00000000    0.00000000
     atom   13 type  3   force =     0.00000000    0.00000000    0.00000000
     The SCF correction term to forces
     atom    1 type  1   force =     0.00000000    0.00000000    0.00000000
     atom    2 type  1   force =    -0.00000003    0.00000002    0.00021958
     atom    3 type  1   force =     0.00000003   -0.00000002   -0.00021958
     atom    4 type  2   force =    -0.00000000    0.00000000   -0.00019771
     atom    5 type  2   force =     0.00000000   -0.00000000    0.00019771
     atom    6 type  2   force =    -0.00000006    0.00000003    0.00000673
     atom    7 type  2   force =     0.00000006   -0.00000003   -0.00000673
     atom    8 type  3   force =    -0.00000000    0.00000000   -0.00008706
     atom    9 type  3   force =     0.00000000   -0.00000000    0.00008706
     atom   10 type  3   force =     0.00000000    0.00000000    0.00000000
     atom   11 type  3   force =     0.00000006   -0.00000004   -0.00005007
     atom   12 type  3   force =    -0.00000006    0.00000004    0.00005007
     atom   13 type  3   force =     0.00000000    0.00000000    0.00000000

     Total force =     0.000409     Total SCF correction =     0.000441
     SCF correction compared to forces is large: reduce conv_thr to get better values

     bfgs converged in  15 scf cycles and  14 bfgs steps
     (criteria: energy <  1.0E-06 Ry, force <  1.0E-03 Ry/Bohr)

     End of BFGS Geometry Optimization

     Final energy   =   -2303.0525471664 Ry
Begin final coordinates

ATOMIC_POSITIONS (angstrom)
Rh       0.000000000   0.000000000  16.058850110    0   0   0
Rh       1.531646163   0.884295102  21.729038952
Rh      -0.000001059   1.768592038  10.388659779
Cu      -0.000000050   0.000000029   7.482002108
Cu       0.000000050  -0.000000029  24.635699652
Cu       1.531635605   0.884301198  13.235891988
Cu       0.000009499   1.768585942  18.881809772
O       -0.000000203   0.000000117   9.390246209
O        0.000000203  -0.000000117  22.727455500
O        1.531660442   0.884286858  15.045481856    0   0   0
O        1.531644557   0.884296029  11.398445060
O        0.000000547   1.768591111  20.719253620
O       -0.000015338   1.768600282  17.072216823    0   0   0
End final coordinates



     Writing output data file pwscf.save/
     Writing meta-gga kinetic term
 
     init_run     :      9.63s CPU     11.20s WALL (       1 calls)
     electrons    :  10649.72s CPU  11294.28s WALL (      15 calls)
     update_pot   :      0.82s CPU      0.90s WALL (      14 calls)
     forces       :      9.06s CPU      9.63s WALL (      15 calls)

     Called by init_run:
     wfcinit      :      9.23s CPU      9.96s WALL (       1 calls)
     wfcinit:atom :      0.00s CPU      0.00s WALL (      21 calls)
     wfcinit:wfcr :      9.14s CPU      9.84s WALL (      21 calls)
     potinit      :      0.08s CPU      0.10s WALL (       1 calls)
     hinit0       :      0.06s CPU      0.87s WALL (       1 calls)

     Called by electrons:
     c_bands      :   9033.46s CPU   9584.05s WALL (     368 calls)
     sum_band     :   1591.24s CPU   1681.62s WALL (     368 calls)
     v_of_rho     :     22.27s CPU     22.98s WALL (     383 calls)
     v_h          :      0.43s CPU      0.45s WALL (     383 calls)
     v_xc_meta    :     21.84s CPU     22.51s WALL (     383 calls)
     mix_rho      :      2.43s CPU      2.53s WALL (     368 calls)

     Called by c_bands:
     init_us_2    :     10.29s CPU     10.77s WALL (   15792 calls)
     cegterg      :   8909.27s CPU   9448.30s WALL (    7728 calls)

     Called by sum_band:

     Called by *egterg:
     h_psi        :   7031.97s CPU   7426.51s WALL (   28089 calls)
     g_psi        :      2.13s CPU      2.23s WALL (   20340 calls)
     cdiaghg      :   1658.72s CPU   1682.05s WALL (   27774 calls)
     cegterg:over :     95.32s CPU    123.75s WALL (   20340 calls)
     cegterg:upda :     25.10s CPU     25.89s WALL (   20340 calls)
     cegterg:last :     13.59s CPU     13.89s WALL (    8241 calls)

     Called by h_psi:
     h_psi:pot    :   1841.67s CPU   1948.39s WALL (   28089 calls)
     h_psi:calbec :     44.33s CPU     50.46s WALL (   28089 calls)
     vloc_psi     :   1765.10s CPU   1864.54s WALL (   28089 calls)
     add_vuspsi   :     31.19s CPU     32.56s WALL (   28089 calls)
     h_psi_meta   :   5185.75s CPU   5470.27s WALL (   28089 calls)

     General routines
     calbec       :     46.57s CPU     53.40s WALL (   29349 calls)
     fft          :     22.21s CPU     23.71s WALL (    4567 calls)
     ffts         :      0.64s CPU      0.67s WALL (     736 calls)
     fftw         :   8158.67s CPU   8611.14s WALL (16722472 calls)
     interpolate  :      0.01s CPU      0.01s WALL (     383 calls)
 
     Parallel routines
     fft_scatt_xy :    429.57s CPU    452.98s WALL (16727775 calls)
     fft_scatt_yz :   5985.35s CPU   6357.79s WALL (16727775 calls)
 
     PWSCF        :      2h58m CPU      3h 8m WALL

 
   This run was terminated on:   0:14: 5  14Aug2020            

=------------------------------------------------------------------------------=
   JOB DONE.
=------------------------------------------------------------------------------=
